formula,atom a,atom b,lowest distortion,e_form,e_hull,mu_b,vpa,gap pbe,a,b,c,alpha,beta,gamma,e_form oxygen
VKO3,V,K,orthorhombic,-2.333,0.037000000000000005,0,16.119,2.424,5.479,5.683,10.354,90,90,90,-9.684
VLaO3,V,La,orthorhombic,-2.9730000000000003,0.275,0.4,14.350999999999999,1.3880000000000001,5.725,5.85,8.571,90,90,90,-6.936
VLiO3,V,Li,orthorhombic,-2.164,0.20800000000000002,0,8.948,1.794,4.691,5.019,7.601,90,90,90,-5.697
VLuO3,V,Lu,cubic,-1.942,1.354,0.4,14.425999999999998,0.0,4.163,4.163,4.163,90,90,90,-4.776
VMgO3,V,Mg,cubic,-1.41,1.328,0.201,10.562999999999999,0.0,3.752,3.752,3.752,90,90,90,-5.07
VMnO3,V,Mn,cubic,-1.521,0.861,1.2,10.509,0.0,3.746,3.746,3.746,90,90,90,-1.571
VMoO3,V,Mo,cubic,-1.6159999999999999,0.6679999999999999,0.662,11.929,0.0,3.907,3.907,3.907,90,90,90,3.127
VNaO3,V,Na,orthorhombic,-2.233,0.242,0,12.446,2.123,5.305,5.535,8.478,90,90,90,-10.109
VNbO3,V,Nb,cubic,-2.035,0.527,0.693,12.697000000000001,0.0,3.989,3.989,3.989,90,90,90,3.495
VNdO3,V,Nd,orthorhombic,-2.912,0.284,0.4,13.857999999999999,1.358,5.687,5.808,8.392,90,90,90,-5.876
VNiO3,V,Ni,cubic,-0.965,1.0390000000000001,0.22,9.639,0.0,3.639,3.639,3.639,90,90,90,-1.4280000000000002
VOsO3,V,Os,cubic,-0.8740000000000001,0.976,0.505,11.602,0.0,3.871,3.871,3.871,90,90,90,0.23
VPaO3,V,Pa,cubic,-2.075,0.6890000000000001,0.799,16.596,0.0,4.362,4.362,4.362,90,90,90,3.863
VPdO3,V,Pd,cubic,-0.525,1.236,0.482,11.940999999999999,0.0,3.908,3.908,3.908,90,90,90,-3.5469999999999997
VPmO3,V,Pm,orthorhombic,-2.9410000000000003,0.275,0.4,13.610999999999999,1.406,5.67,5.767,8.324,90,90,90,-6.807
VPrO3,V,Pr,orthorhombic,-2.888,0.292,0.4,14.118,1.315,5.723,5.819,8.479,90,90,90,-7.01
VPtO3,V,Pt,cubic,-0.467,1.271,0.514,12.287,0.0,3.946,3.946,3.946,90,90,90,-2.191
VRbO3,V,Rb,orthorhombic,-2.339,0.028999999999999998,0,17.828,2.477,5.618,5.953,10.66,90,90,90,-19.750999999999998
VReO3,V,Re,cubic,-1.253,0.831,0.671,11.78,0.0,3.891,3.891,3.891,90,90,90,1.246
VRhO3,V,Rh,cubic,-0.75,1.064,0.338,11.669,0.0,3.878,3.878,3.878,90,90,90,-1.777
VRuO3,V,Ru,cubic,-0.941,0.9440000000000001,0.28,11.609000000000002,0.0,3.872,3.872,3.872,90,90,90,-0.311
VSbO3,V,Sb,cubic,-1.161,0.9440000000000001,0.693,13.135,0.0,4.035,4.035,4.035,90,90,90,0.871
VScO3,V,Sc,cubic,-2.069,1.15,0.402,12.606,0.0,3.98,3.98,3.98,90,90,90,-3.636
VSiO3,V,Si,cubic,-2.177,0.596,0.6,8.818999999999999,0.0,3.533,3.533,3.533,90,90,90,4.538
VSmO3,V,Sm,orthorhombic,-2.955,0.268,0.4,13.425,1.6380000000000001,5.655,5.74,8.271,90,90,90,-6.477
VSnO3,V,Sn,orthorhombic,-1.985,0.223,0.597,11.623,0.0,5.362,5.585,7.763,90,90,90,1.47
VSrO3,V,Sr,orthorhombic,-2.7230000000000003,0.158,0.2,14.899000000000001,1.5230000000000001,5.532,5.639,9.553,90,90,90,-9.981
VTaO3,V,Ta,cubic,-2.226,0.509,0.727,12.481,0.0,3.966,3.966,3.966,90,90,90,4.183
VTbO3,V,Tb,cubic,-1.58,1.5530000000000002,0.401,15.806,0.0,4.291,4.291,4.291,90,90,90,-5.874
VTcO3,V,Tc,cubic,-1.265,0.816,0.668,11.587,0.0,3.869,3.869,3.869,90,90,90,0.5589999999999999
VThO3,V,Th,cubic,-2.2,1.247,0.601,18.712,0.0,4.54,4.54,4.54,90,90,90,-1.902
VTiO3,V,Ti,cubic,-2.344,0.569,0.6,11.243,0.0,3.831,3.831,3.831,90,90,90,1.646
VTlO3,V,Tl,orthorhombic,-1.5659999999999998,0.40399999999999997,0.4,12.645,0.209,5.575,5.589,8.116,90,90,90,-5.31
VTmO3,V,Tm,cubic,-1.875,1.4169999999999998,0.4,14.819,0.0,4.2,4.2,4.2,90,90,90,-5.136
VUO3,V,U,cubic,-2.295,0.9009999999999999,0.601,15.994000000000002,0.0,4.308,4.308,4.308,90,90,90,1.0090000000000001
V2O3,V,V,cubic,-1.8880000000000001,0.743,0.8,10.683,0.0,3.766,3.766,3.766,90,90,90,0.598
VWO3,V,W,cubic,-1.676,0.635,0.704,11.982999999999999,0.0,3.913,3.913,3.913,90,90,90,3.4560000000000004
VYO3,V,Y,cubic,-1.722,1.5290000000000001,0.4,15.792,0.0,4.29,4.29,4.29,90,90,90,-5.694
VYbO3,V,Yb,orthorhombic,-2.858,0.22,0.2,12.677999999999999,1.3330000000000002,5.393,5.432,8.656,90,90,90,-7.7589999999999995
VZnO3,V,Zn,cubic,-0.8909999999999999,1.27,0.403,10.64,0.0,3.761,3.761,3.761,90,90,90,-4.832
VZrO3,V,Zr,cubic,-2.3280000000000003,0.7559999999999999,0.6,13.825999999999999,0.0,4.104,4.104,4.104,90,90,90,0.821
WAcO3,W,Ac,rhombohedral,-2.396,0.373,0.2,16.558,0.0,5.928,5.928,5.928,65.7,65.7,65.7,-5.02
WAgO3,W,Ag,orthorhombic,-1.4140000000000001,0.5429999999999999,0,13.655999999999999,0.532,5.252,6.199,8.389,90,90,90,-12.443
WAlO3,W,Al,cubic,-1.41,1.21,0.576,9.692,0.0,3.646,3.646,3.646,90,90,90,1.043
WAsO3,W,As,cubic,0.022000000000000002,1.9780000000000002,0.755,11.892999999999999,0.0,3.903,3.903,3.903,90,90,90,-1.385
WAuO3,W,Au,cubic,0.79,2.7460000000000004,0.66,13.324000000000002,0.0,4.054,4.054,4.054,90,90,90,-11.822000000000001
WBO3,W,B,cubic,-0.52,1.771,0.464,7.865,0.0,3.401,3.401,3.401,90,90,90,0.235
WBaO3,W,Ba,rhombohedral,-2.419,0.308,0,18.913,1.695,6.269,6.269,6.269,63.9,63.9,63.9,-18.683
WBeO3,W,Be,cubic,-1.232,1.26,0.274,7.882000000000001,0.0,3.403,3.403,3.403,90,90,90,0.0
WBiO3,W,Bi,cubic,0.287,2.2430000000000003,0.835,15.235,0.0,4.239,4.239,4.239,90,90,90,-0.405
WCaO3,W,Ca,rhombohedral,-2.37,0.39299999999999996,0,14.437999999999999,0.855,5.777,5.777,5.777,62.7,62.7,62.7,-13.482000000000001
WCdO3,W,Cd,rhombohedral,-1.494,0.462,0,13.866,1.1079999999999999,5.444,5.444,5.444,70.4,70.4,70.4,-12.523
WCeO3,W,Ce,cubic,-0.331,2.484,0.601,18.322,0.0,4.508,4.508,4.508,90,90,90,-12.106
WCoO3,W,Co,cubic,-0.281,1.676,0.363,9.707,0.0,3.648,3.648,3.648,90,90,90,-2.7
WCrO3,W,Cr,cubic,-0.8,1.4340000000000002,1.199,10.965,0.0,3.799,3.799,3.799,90,90,90,-2.864
WCuO3,W,Cu,cubic,-0.03,1.9269999999999998,0.482,10.017000000000001,0.0,3.686,3.686,3.686,90,90,90,-6.148
WDyO3,W,Dy,cubic,-0.843,2.1,0.602,15.386,0.0,4.253,4.253,4.253,90,90,90,-9.02
WErO3,W,Er,cubic,-0.938,2.077,0.6,14.850999999999999,0.0,4.203,4.203,4.203,90,90,90,-8.321
WEuO3,W,Eu,rhombohedral,-2.5380000000000003,0.375,0,15.144,0.9279999999999999,5.838,5.838,5.838,63.5,63.5,63.5,-15.419
WFeO3,W,Fe,cubic,-0.35,1.651,1.592,11.042,0.0,3.808,3.808,3.808,90,90,90,-2.8760000000000003
WGaO3,W,Ga,rhombohedral,-1.4880000000000002,0.542,0,13.458,0.0,5.259,5.259,5.259,76.2,76.2,76.2,-2.5140000000000002
WGdO3,W,Gd,cubic,-0.735,2.244,0.598,15.992,0.0,4.308,4.308,4.308,90,90,90,-9.774
WGeO3,W,Ge,cubic,-0.359,1.598,0.762,10.859000000000002,0.0,3.787,3.787,3.787,90,90,90,0.254
WHfO3,W,Hf,cubic,-1.464,1.492,0.8,13.415,0.0,4.063,4.063,4.063,90,90,90,-2.673
WHgO3,W,Hg,cubic,0.912,2.8680000000000003,0.661,14.263,0.0,4.147,4.147,4.147,90,90,90,-14.081
WHoO3,W,Ho,cubic,-0.892,2.063,0.601,15.104000000000001,0.0,4.227,4.227,4.227,90,90,90,-8.658999999999999
WInO3,W,In,rhombohedral,-1.486,0.47,0,14.255,0.0,5.494,5.494,5.494,70.4,70.4,70.4,-7.8870000000000005
WIrO3,W,Ir,cubic,0.335,2.291,0.571,12.082,0.0,3.924,3.924,3.924,90,90,90,-6.691
WKO3,W,K,orthorhombic,-2.125,0.247,0,17.2,0.0,5.315,6.346,10.199,90,90,90,-11.030999999999999
WLaO3,W,La,cubic,-0.466,2.458,0.6,17.849,0.0,4.469,4.469,4.469,90,90,90,-11.681
WLiO3,W,Li,orthorhombic,-2.1390000000000002,0.268,0.07,9.376,0.0,4.763,5.057,7.786,90,90,90,-5.0969999999999995
WLuO3,W,Lu,cubic,-1.0759999999999998,1.952,0.6,14.129000000000001,0.0,4.134,4.134,4.134,90,90,90,-7.232
WMgO3,W,Mg,cubic,-0.8590000000000001,1.696,0.387,10.061,0.0,3.692,3.692,3.692,90,90,90,-4.827
WMnO3,W,Mn,cubic,-0.5670000000000001,1.642,1.4,10.998,0.0,3.803,3.803,3.803,90,90,90,-5.2860000000000005
WMoO3,W,Mo,cubic,-0.494,1.463,0.798,12.220999999999998,0.0,3.939,3.939,3.939,90,90,90,-2.432
WNaO3,W,Na,orthorhombic,-2.028,0.35200000000000004,0.005,13.044,0.0,5.444,5.75,8.334,90,90,90,-14.529000000000002
WNbO3,W,Nb,cubic,-0.9159999999999999,1.392,0.837,12.956,0.0,4.016,4.016,4.016,90,90,90,-0.106
WNdO3,W,Nd,cubic,-0.47100000000000003,2.4530000000000003,0.599,17.430999999999997,0.0,4.434,4.434,4.434,90,90,90,-11.380999999999998
WNiO3,W,Ni,cubic,-0.22399999999999998,1.732,0.779,9.906,0.0,3.673,3.673,3.673,90,90,90,-3.9219999999999997
WNpO3,W,Np,cubic,-0.93,1.949,-0.434,15.885,0.0,4.298,4.298,4.298,90,90,90,-6.591
WOsO3,W,Os,cubic,0.196,2.153,0.547,11.924000000000001,0.0,3.907,3.907,3.907,90,90,90,-6.024
WPaO3,W,Pa,cubic,-1.054,1.4580000000000002,0.993,16.736,0.0,4.374,4.374,4.374,90,90,90,2.0709999999999997
WPdO3,W,Pd,cubic,0.37799999999999995,2.334,0.579,12.139000000000001,0.0,3.93,3.93,3.93,90,90,90,-5.756
WPmO3,W,Pm,cubic,-0.547,2.271,0.6,17.012999999999998,0.0,4.398,4.398,4.398,90,90,90,-10.954
WPrO3,W,Pr,cubic,-0.405,2.451,0.6,17.833,0.0,4.468,4.468,4.468,90,90,90,-11.743
WPtO3,W,Pt,cubic,0.501,2.458,0.627,12.59,0.0,3.978,3.978,3.978,90,90,90,-7.643
WPuO3,W,Pu,cubic,-0.39399999999999996,2.4019999999999997,0.739,15.952,0.0,4.305,4.305,4.305,90,90,90,-12.844000000000001
WRbO3,W,Rb,orthorhombic,-2.138,0.23800000000000002,0,18.834,0.0,5.34,6.542,10.783,90,90,90,-5.053999999999999
WReO3,W,Re,cubic,-0.12300000000000001,1.8330000000000002,0.792,12.095999999999998,0.0,3.925,3.925,3.925,90,90,90,-4.812
WRhO3,W,Rh,cubic,0.182,2.1390000000000002,0.528,11.783,0.0,3.891,3.891,3.891,90,90,90,-5.188
WRuO3,W,Ru,cubic,0.059000000000000004,2.015,0.446,11.738,0.0,3.886,3.886,3.886,90,90,90,-4.789
WSbO3,W,Sb,cubic,-0.034,1.923,0.869,13.594000000000001,0.0,4.081,4.081,4.081,90,90,90,-4.124
WScO3,W,Sc,cubic,-1.236,1.6469999999999998,0.599,12.422,0.0,3.96,3.96,3.96,90,90,90,-5.206
WSiO3,W,Si,cubic,-0.9,1.598,0.751,9.471,0.0,3.618,3.618,3.618,90,90,90,1.663
WSmO3,W,Sm,cubic,-0.595,2.235,0.599,16.730999999999998,0.0,4.374,4.374,4.374,90,90,90,-10.65
WSnO3,W,Sn,orthorhombic,-1.618,0.33899999999999997,0,12.065999999999999,0.0,5.535,6.462,6.748,90,90,90,0.5870000000000001
WSrO3,W,Sr,rhombohedral,-2.4130000000000003,0.332,0,16.614,1.361,6.037,6.037,6.037,63.1,63.1,63.1,-16.873
WTaO3,W,Ta,cubic,-1.092,1.425,0.874,12.773,0.0,3.997,3.997,3.997,90,90,90,0.735
WTbO3,W,Tb,cubic,-0.659,2.1,0.599,15.686,0.0,4.28,4.28,4.28,90,90,90,-9.392000000000001
WTcO3,W,Tc,cubic,-0.179,1.777,0.774,11.823,0.0,3.896,3.896,3.896,90,90,90,-4.149
WTeO3,W,Te,cubic,0.252,2.208,0.847,14.453,0.0,4.165,4.165,4.165,90,90,90,-5.396
WThO3,W,Th,cubic,-1.155,2.04,0.8,18.641,0.0,4.534,4.534,4.534,90,90,90,-0.322
WTiO3,W,Ti,cubic,-1.268,1.33,0.719,11.466,0.0,3.856,3.856,3.856,90,90,90,-3.0380000000000003
WTlO3,W,Tl,orthorhombic,-1.74,0.217,-0.001,18.012,0.0,5.342,6.559,10.281,90,90,90,-13.345
WTmO3,W,Tm,cubic,-0.997,1.949,0.6,14.565999999999999,0.0,4.176,4.176,4.176,90,90,90,-7.907
WUO3,W,U,cubic,-1.234,1.7109999999999999,1.184,16.159000000000002,0.0,4.323,4.323,4.323,90,90,90,1.857
WVO3,W,V,cubic,-0.867,1.445,1,11.122,0.0,3.817,3.817,3.817,90,90,90,-3.895
W2O3,W,W,cubic,-0.532,1.4269999999999998,0.835,12.289000000000001,0.0,3.946,3.946,3.946,90,90,90,-2.362
WYO3,W,Y,cubic,-0.818,2.149,0.599,15.402000000000001,0.0,4.255,4.255,4.255,90,90,90,-9.024
WYbO3,W,Yb,rhombohedral,-2.5,0.23399999999999999,0.001,14.644,0.685,5.95,5.95,5.95,59.3,59.3,59.3,-13.325999999999999
WZnO3,W,Zn,cubic,-0.138,1.8330000000000002,0.488,10.775,0.0,3.777,3.777,3.777,90,90,90,-6.731
WZrO3,W,Zr,cubic,-1.272,1.561,0.8,13.954,0.0,4.117,4.117,4.117,90,90,90,-4.0089999999999995
YAcO3,Y,Ac,cubic,-2.181,1.5130000000000001,0,20.264,0.0,4.662,4.662,4.662,90,90,90,0.977
YAgO3,Y,Ag,cubic,-1.43,0.5870000000000001,0,13.023,0.0,4.023,4.023,4.023,90,90,90,-0.506
YAlO3,Y,Al,orthorhombic,-3.56,-0.023,0,10.255,5.872000000000001,5.188,5.347,7.394,90,90,90,6.272
YAsO3,Y,As,cubic,-1.911,0.7509999999999999,0,12.728,0.0,3.992,3.992,3.992,90,90,90,2.181
YAuO3,Y,Au,cubic,-1.294,0.7509999999999999,0,13.772,0.0,4.099,4.099,4.099,90,90,90,-0.579
YBO3,Y,B,cubic,-2.487,0.88,0,8.307,2.9530000000000003,3.463,3.463,3.463,90,90,90,5.345
YBaO3,Y,Ba,orthorhombic,-2.8110000000000004,0.275,0.2,18.577,0.7090000000000001,6.515,6.787,8.403,90,90,90,-7.335
YBeO3,Y,Be,tetragonal,-2.772,0.318,0.031,9.597999999999999,0.0,3.316,3.316,4.365,90,90,90,-0.98
YBiO3,Y,Bi,cubic,-1.5390000000000001,1.102,0,16.599,0.0,4.362,4.362,4.362,90,90,90,0.981
YCaO3,Y,Ca,cubic,-2.145,1.05,0.193,13.719000000000001,0.0,4.093,4.093,4.093,90,90,90,-2.872
YCdO3,Y,Cd,cubic,-1.598,0.8,0,13.719000000000001,0.0,4.093,4.093,4.093,90,90,90,-1.002
YCeO3,Y,Ce,cubic,-2.323,1.3419999999999999,0,18.662,0.389,4.536,4.536,4.536,90,90,90,-2.9789999999999996
YCrO3,Y,Cr,orthorhombic,-3.178,-0.033,0.6,11.195,2.6,5.281,5.578,7.6,90,90,90,4.248
YCuO3,Y,Cu,orthorhombic,-2.259,0.048,0,11.081,0.374,5.237,5.899,7.174,90,90,90,0.7020000000000001
YDyO3,Y,Dy,cubic,-2.911,0.9179999999999999,0,15.491,1.445,4.263,4.263,4.263,90,90,90,1.026
YErO3,Y,Er,cubic,-3.01,0.8420000000000001,0,15.017000000000001,1.895,4.219,4.219,4.219,90,90,90,1.808
YEuO3,Y,Eu,cubic,-2.141,1.122,0.107,15.424000000000001,0.0,4.256,4.256,4.256,90,90,90,-2.293
YFeO3,Y,Fe,orthorhombic,-2.758,-0.028999999999999998,1,11.329,1.153,5.298,5.607,7.627,90,90,90,3.19
YGaO3,Y,Ga,orthorhombic,-2.946,0.024,0,11.113,4.138999999999999,5.277,5.565,7.569,90,90,90,4.486000000000001
YGdO3,Y,Gd,cubic,-2.798,1.002,0,16.090999999999998,1.371,4.317,4.317,4.317,90,90,90,0.203
YGeO3,Y,Ge,cubic,-2.218,0.604,0,11.597999999999999,0.0,3.871,3.871,3.871,90,90,90,2.86
YHfO3,Y,Hf,orthorhombic,-3.428,0.204,0.001,12.477,0.0,5.464,6.051,7.548,90,90,90,4.711
YHgO3,Y,Hg,cubic,-1.182,0.904,0,14.72,0.0,4.191,4.191,4.191,90,90,90,-0.9
YHoO3,Y,Ho,cubic,-2.963,0.878,0,15.248,1.662,4.24,4.24,4.24,90,90,90,1.406
YIrO3,Y,Ir,cubic,-1.6440000000000001,0.7390000000000001,0,12.365,0.0,3.954,3.954,3.954,90,90,90,-0.7759999999999999
YKO3,Y,K,orthorhombic,-2.033,0.45799999999999996,0.4,18.007,0.0,5.958,5.981,10.106,90,90,90,-3.846
YLaO3,Y,La,cubic,-2.4459999999999997,1.315,0,18.419,0.387,4.516,4.516,4.516,90,90,90,-2.9410000000000003
YLiO3,Y,Li,orthorhombic,-2.256,0.33,0.4,10.475999999999999,0.0,5.023,5.772,7.226,90,90,90,-1.3319999999999999
YLuO3,Y,Lu,cubic,-3.1510000000000002,0.7340000000000001,0,14.331,2.052,4.154,4.154,4.154,90,90,90,2.8789999999999996
YMgO3,Y,Mg,orthorhombic,-2.9019999999999997,0.18899999999999997,0.201,11.505999999999998,0.0,5.423,5.757,7.371,90,90,90,-1.4680000000000002
YMnO3,Y,Mn,orthorhombic,-2.9360000000000004,0.023,0.8,11.38,0.379,5.293,5.739,7.493,90,90,90,3.468
YMoO3,Y,Mo,cubic,-2.285,0.618,0.006,12.384,0.0,3.956,3.956,3.956,90,90,90,1.87
YNaO3,Y,Na,cubic,-1.435,1.056,0.4,12.107000000000001,0.0,3.927,3.927,3.927,90,90,90,-2.758
YNbO3,Y,Nb,cubic,-2.615,0.5770000000000001,0,13.062000000000001,0.0,4.027,4.027,4.027,90,90,90,3.287
YNdO3,Y,Nd,cubic,-2.502,1.212,0,17.67,0.825,4.454,4.454,4.454,90,90,90,-1.797
YNiO3,Y,Ni,orthorhombic,-2.381,0.02,0.2,10.600999999999999,0.0,5.182,5.523,7.409,90,90,90,1.035
YOsO3,Y,Os,cubic,-1.692,0.735,0.003,12.206,0.0,3.937,3.937,3.937,90,90,90,0.21899999999999997
YPaO3,Y,Pa,cubic,-2.407,0.892,0.334,17.775,0.0,4.463,4.463,4.463,90,90,90,3.01
YPdO3,Y,Pd,cubic,-1.714,0.515,0,12.383,0.0,3.956,3.956,3.956,90,90,90,-0.022000000000000002
YPmO3,Y,Pm,cubic,-2.591,1.151,0,17.189,1.032,4.413,4.413,4.413,90,90,90,-1.227
YPrO3,Y,Pr,cubic,-2.419,1.273,0,18.136,0.619,4.493,4.493,4.493,90,90,90,-2.36
YPtO3,Y,Pt,cubic,-1.554,0.698,0,12.95,0.0,4.016,4.016,4.016,90,90,90,-0.43700000000000006
YPuO3,Y,Pu,cubic,-2.648,1.072,0.954,16.64,0.0,4.366,4.366,4.366,90,90,90,-0.207
YRbO3,Y,Rb,orthorhombic,-2.135,0.33799999999999997,0,18.335,1.4509999999999998,6.164,6.253,9.515,90,90,90,-8.123
YReO3,Y,Re,cubic,-1.911,0.7609999999999999,0.161,12.3,0.0,3.947,3.947,3.947,90,90,90,0.414
YRhO3,Y,Rh,cubic,-1.848,0.523,0,12.035,0.0,3.919,3.919,3.919,90,90,90,-0.064
YRuO3,Y,Ru,cubic,-1.9040000000000001,0.57,0.137,12.017999999999999,0.0,3.917,3.917,3.917,90,90,90,0.774
YSbO3,Y,Sb,cubic,-1.756,0.965,0,14.857999999999999,0.0,4.204,4.204,4.204,90,90,90,1.1540000000000001
YScO3,Y,Sc,orthorhombic,-3.781,0.027000000000000003,0,12.270999999999999,4.6610000000000005,5.43,5.721,7.901,90,90,90,5.013
YSiO3,Y,Si,cubic,-2.6430000000000002,0.718,0,10.014,0.0,3.686,3.686,3.686,90,90,90,4.666
YSmO3,Y,Sm,cubic,-2.647,1.1079999999999999,0,16.879,1.24,4.386,4.386,4.386,90,90,90,-0.8029999999999999
YSnO3,Y,Sn,cubic,-2.029,0.804,0.002,13.8,0.0,4.102,4.102,4.102,90,90,90,2.3680000000000003
YSrO3,Y,Sr,orthorhombic,-2.8819999999999997,0.259,0.2,16.643,0.0,5.812,5.853,9.786,90,90,90,-3.605
YTaO3,Y,Ta,cubic,-2.696,0.609,0.001,12.847999999999999,0.0,4.005,4.005,4.005,90,90,90,3.345
YTbO3,Y,Tb,cubic,-2.7260000000000004,0.958,0,15.798,1.6580000000000001,4.291,4.291,4.291,90,90,90,0.631
YTcO3,Y,Tc,cubic,-2.083,0.5870000000000001,0.321,12.18,0.0,3.934,3.934,3.934,90,90,90,1.315
YTeO3,Y,Te,cubic,-1.446,1.093,0.01,15.173,0.0,4.233,4.233,4.233,90,90,90,1.033
YThO3,Y,Th,cubic,-2.801,1.011,0.152,18.885,0.0,4.554,4.554,4.554,90,90,90,2.387
YTiO3,Y,Ti,orthorhombic,-3.44,0.039,0.2,11.517999999999999,0.0,5.309,5.676,7.645,90,90,90,4.77
YTlO3,Y,Tl,orthorhombic,-2.265,0.10800000000000001,0,14.133,1.097,5.576,5.93,8.549,90,90,90,0.61
YTmO3,Y,Tm,cubic,-3.07,0.8,0,14.729000000000001,1.869,4.192,4.192,4.192,90,90,90,2.191
YUO3,Y,U,cubic,-2.59,1.033,0.566,16.738,0.0,4.374,4.374,4.374,90,90,90,2.281
YVO3,Y,V,orthorhombic,-3.25,-0.031,0.4,11.520999999999999,1.489,5.313,5.703,7.605,90,90,90,3.984
YWO3,Y,W,cubic,-2.211,0.757,0.001,12.44,0.0,3.962,3.962,3.962,90,90,90,1.435
Y2O3,Y,Y,cubic,-2.888,0.92,0,15.51,1.751,4.264,4.264,4.264,90,90,90,1.075
YYbO3,Y,Yb,cubic,-2.3890000000000002,0.919,-0.158,13.809000000000001,0.0,4.102,4.102,4.102,90,90,90,-1.8719999999999999
YZnO3,Y,Zn,orthorhombic,-2.423,0.14,0,11.325999999999999,0.0,5.255,5.777,7.461,90,90,90,-0.209
YZrO3,Y,Zr,cubic,-2.9819999999999998,0.5670000000000001,0,14.046,0.0,4.126,4.126,4.126,90,90,90,4.354
YbAcO3,Yb,Ac,cubic,-2.392,0.8009999999999999,0.071,19.317999999999998,0.0,4.588,4.588,4.588,90,90,90,-1.242
YbAgO3,Yb,Ag,orthorhombic,-1.5030000000000001,0.013000000000000001,-,11.962,0.0,5.42,5.804,7.605,90,90,90,-1.121
YbAlO3,Yb,Al,cubic,-3.0469999999999997,-0.011000000000000001,-,9.918,0.0,3.674,3.674,3.674,90,90,90,0.315
YbAsO3,Yb,As,orthorhombic,-2.279,0.023,-,11.197000000000001,0.0,5.322,5.518,7.625,90,90,90,2.19
YbAuO3,Yb,Au,orthorhombic,-1.574,-0.03,-,12.095999999999998,0.0,5.46,5.898,7.513,90,90,90,-0.981
YbBO3,Yb,B,cubic,-2.127,0.623,-,7.821000000000001,0.0,3.394,3.394,3.394,90,90,90,-0.92
YbBaO3,Yb,Ba,orthorhombic,-2.4330000000000003,0.242,-,16.717,2.0669999999999997,6.361,6.426,8.18,90,90,90,-2.149
YbBeO3,Yb,Be,orthorhombic,-2.266,0.324,-,8.574,0.0,4.674,5.217,7.032,90,90,90,-1.54
YbBiO3,Yb,Bi,orthorhombic,-2.221,-0.037000000000000005,-,14.050999999999998,0.0,5.683,5.989,8.256,90,90,90,1.166
YbCaO3,Yb,Ca,cubic,-1.861,0.846,-,14.652999999999999,0.0,4.184,4.184,4.184,90,90,90,-2.843
YbCdO3,Yb,Cd,cubic,-1.374,0.524,-,13.347000000000001,0.0,4.056,4.056,4.056,90,90,90,-1.646
YbCeO3,Yb,Ce,cubic,-2.379,0.784,0.2,18.026,0.0,4.484,4.484,4.484,90,90,90,-1.777
YbCrO3,Yb,Cr,orthorhombic,-2.7889999999999997,-0.024,0.4,10.367,0.578,5.191,5.406,7.389,90,90,90,1.7180000000000002
YbCsO3,Yb,Cs,cubic,-0.664,1.382,-,17.683,0.0,4.455,4.455,4.455,90,90,90,-1.6230000000000002
YbCuO3,Yb,Cu,orthorhombic,-1.7519999999999998,0.11800000000000001,-,10.113,0.0,5.178,5.302,7.368,90,90,90,-0.353
YbDyO3,Yb,Dy,cubic,-2.759,0.569,0.199,15.427,0.0,4.257,4.257,4.257,90,90,90,-1.456
YbErO3,Yb,Er,cubic,-2.823,0.529,0.2,14.966,0.0,4.214,4.214,4.214,90,90,90,-1.3730000000000002
YbEuO3,Yb,Eu,cubic,-2.033,0.728,0.001,14.520999999999999,0.0,4.172,4.172,4.172,90,90,90,-1.672
YbFeO3,Yb,Fe,orthorhombic,-2.384,-0.12300000000000001,0.799,10.36,0.0,5.221,5.341,7.429,90,90,90,1.3359999999999999
YbGaO3,Yb,Ga,orthorhombic,-2.373,0.08,-,10.817,0.0,5.21,5.548,7.485,90,90,90,-0.847
YbGdO3,Yb,Gd,cubic,-2.6860000000000004,0.614,0.2,15.92,0.0,4.302,4.302,4.302,90,90,90,-1.511
YbGeO3,Yb,Ge,orthorhombic,-2.688,-0.098,-,10.184,2.697,5.201,5.289,7.404,90,90,90,4.023
YbHfO3,Yb,Hf,orthorhombic,-3.8160000000000003,-0.109,0,12.29,4.7010000000000005,5.481,5.69,7.881,90,90,90,6.42
YbHgO3,Yb,Hg,cubic,-1.1179999999999999,0.467,-,13.902999999999999,0.0,4.112,4.112,4.112,90,90,90,-1.328
YbHoO3,Yb,Ho,cubic,-2.792,0.5479999999999999,0.2,15.159,0.0,4.232,4.232,4.232,90,90,90,-1.429
YbInO3,Yb,In,orthorhombic,-2.189,0.136,-,12.735999999999999,0.0,5.696,5.973,7.488,90,90,90,-1.399
YbIrO3,Yb,Ir,orthorhombic,-2.106,-0.064,0.048,11.119000000000002,0.0,5.168,5.7,7.55,90,90,90,0.609