formula,atom a,atom b,lowest distortion,e_form,e_hull,mu_b,vpa,gap pbe,a,b,c,alpha,beta,gamma,e_form oxygen
LiAcO3,Li,Ac,orthorhombic,-2.369,0.10300000000000001,0,13.879000000000001,2.806,5.9,6.224,7.559,90,90,90,-0.9640000000000001
LiAgO3,Li,Ag,cubic,-0.124,0.6970000000000001,-,12.914000000000001,0.0,4.012,4.012,4.012,90,90,90,-2.6189999999999998
LiAlO3,Li,Al,orthorhombic,-2.188,0.18,-,8.383,3.175,5.155,5.406,6.017,90,90,90,-1.7309999999999999
LiAsO3,Li,As,orthorhombic,-1.66,0.16399999999999998,-,8.634,1.9769999999999999,4.891,5.003,7.058,90,90,90,1.238
LiAuO3,Li,Au,cubic,-0.203,0.64,-,12.989,0.0,4.02,4.02,4.02,90,90,90,-2.557
LiBO3,Li,B,cubic,-1.077,1.008,-,7.002000000000001,0.0,3.271,3.271,3.271,90,90,90,-3.925
LiBaO3,Li,Ba,cubic,-0.716,1.203,-,18.495,0.0,4.522,4.522,4.522,90,90,90,-2.309
LiBeO3,Li,Be,cubic,-1.105,0.797,-,7.942,0.0,3.412,3.412,3.412,90,90,90,-3.5389999999999997
LiBiO3,Li,Bi,orthorhombic,-1.445,0.037000000000000005,-,11.687999999999999,0.7809999999999999,5.414,5.501,7.849,90,90,90,0.067
LiCaO3,Li,Ca,cubic,-0.89,1.104,-,15.968,0.0,4.306,4.306,4.306,90,90,90,-7.422999999999999
LiCdO3,Li,Cd,cubic,-0.321,0.889,-,13.932,0.0,4.115,4.115,4.115,90,90,90,-5.406000000000001
LiCeO3,Li,Ce,orthorhombic,-2.294,0.14800000000000002,0,12.915,2.519,5.819,6.018,7.376,90,90,90,-2.253
LiCoO3,Li,Co,orthorhombic,-1.1420000000000001,0.223,-0.4,8.18,0.0,4.783,4.965,6.889,90,90,90,0.263
LiCrO3,Li,Cr,orthorhombic,-1.83,0.23199999999999998,0.2,8.687000000000001,0.0,4.857,5.074,7.049,90,90,90,-0.06
LiCsO3,Li,Cs,cubic,0.015,1.306,-,16.48,0.0,4.352,4.352,4.352,90,90,90,-1.652
LiCuO3,Li,Cu,cubic,-0.506,0.55,-,10.021,0.0,3.687,3.687,3.687,90,90,90,-2.175
LiDyO3,Li,Dy,cubic,-1.8880000000000001,0.7190000000000001,0.4,16.374000000000002,0.0,4.342,4.342,4.342,90,90,90,-1.9580000000000002
LiEuO3,Li,Eu,orthorhombic,-1.985,0.08900000000000001,0.129,12.171,0.0,5.554,6.084,7.203,90,90,90,-5.968
LiFeO3,Li,Fe,orthorhombic,-1.354,0.196,0.6,8.583,0.0,4.869,5.052,6.979,90,90,90,-0.831
LiGaO3,Li,Ga,cubic,-1.169,0.625,-,11.057,0.0,3.81,3.81,3.81,90,90,90,-2.557
LiGdO3,Li,Gd,cubic,-1.839,0.7390000000000001,0.398,16.926,0.0,4.39,4.39,4.39,90,90,90,-2.036
LiGeO3,Li,Ge,orthorhombic,-1.6119999999999999,0.27,-,8.872,0.0,5.04,5.257,6.696,90,90,90,-0.763
LiHfO3,Li,Hf,rhombohedral,-2.759,0.218,0.2,11.405999999999999,0.0,5.584,5.584,5.584,56.8,56.8,56.8,-0.501
LiHgO3,Li,Hg,cubic,-0.08800000000000001,0.809,-,14.23,0.0,4.144,4.144,4.144,90,90,90,-2.5660000000000003
LiHoO3,Li,Ho,cubic,-1.91,0.7090000000000001,0.4,16.131,0.0,4.321,4.321,4.321,90,90,90,-1.9269999999999998
LiInO3,Li,In,cubic,-0.8809999999999999,0.726,-,14.024000000000001,0.0,4.124,4.124,4.124,90,90,90,-2.484
LiIrO3,Li,Ir,rhombohedral,-1.3780000000000001,-0.057999999999999996,0,9.756,0.0,5.198,5.198,5.198,59.2,59.2,59.2,0.843
LiKO3,Li,K,cubic,0.491,1.788,-,16.858,0.0,4.385,4.385,4.385,90,90,90,-14.261
LiLaO3,Li,La,orthorhombic,-2.405,0.133,0,12.879000000000001,2.8289999999999997,5.849,6.005,7.334,90,90,90,-1.742
Li2O3,Li,Li,cubic,-0.32,1.044,-,8.937000000000001,0.0,3.549,3.549,3.549,90,90,90,-8.283999999999999
LiLuO3,Li,Lu,cubic,-2.0,0.6629999999999999,0.401,15.284,0.0,4.244,4.244,4.244,90,90,90,-1.709
LiMgO3,Li,Mg,cubic,-1.028,0.866,-,11.367,0.0,3.845,3.845,3.845,90,90,90,-5.461
LiMnO3,Li,Mn,orthorhombic,-1.604,0.22,0.4,8.616,0.0,4.901,5.115,6.874,90,90,90,-1.0490000000000002
LiMoO3,Li,Mo,rhombohedral,-2.2319999999999998,0.09,-0.001,10.277999999999999,0.0,5.369,5.369,5.369,57.3,57.3,57.3,4.169
LiNaO3,Li,Na,orthorhombic,-1.0959999999999999,0.179,-,10.622,0.0,4.695,5.985,7.561,90,90,90,-11.799000000000001
LiNbO3,Li,Nb,rhombohedral,-2.7039999999999997,0.033,0,10.725,2.613,5.467,5.467,5.467,56.9,56.9,56.9,4.763
LiNdO3,Li,Nd,orthorhombic,-2.335,0.187,0,12.423,2.55,5.762,5.941,7.258,90,90,90,-2.224
LiNiO3,Li,Ni,cubic,-0.607,0.605,0.506,9.765,0.0,3.655,3.655,3.655,90,90,90,-2.0140000000000002
LiNpO3,Li,Np,rhombohedral,-2.8819999999999997,0.05,0.4,12.707,1.6469999999999998,5.877,5.877,5.877,55.1,55.1,55.1,1.274
LiOsO3,Li,Os,rhombohedral,-1.575,-0.044000000000000004,-0.002,9.8,0.0,5.225,5.225,5.225,58.8,58.8,58.8,2.292
LiPaO3,Li,Pa,rhombohedral,-2.963,-0.311,0,13.300999999999998,4.216,5.976,5.976,5.976,54.9,54.9,54.9,5.528
LiPbO3,Li,Pb,cubic,-0.818,0.528,-,15.009,0.0,4.218,4.218,4.218,90,90,90,-1.895
LiPdO3,Li,Pd,cubic,-0.488,0.562,-,11.894,0.0,3.903,3.903,3.903,90,90,90,-1.945
LiPmO3,Li,Pm,cubic,-1.7480000000000002,0.772,0.4,17.917,0.0,4.474,4.474,4.474,90,90,90,-2.171
LiPrO3,Li,Pr,orthorhombic,-2.3169999999999997,0.153,0,12.66,2.7539999999999996,5.793,5.974,7.316,90,90,90,-2.28
LiPtO3,Li,Pt,cubic,-0.654,0.502,0.321,12.024000000000001,0.0,3.917,3.917,3.917,90,90,90,-0.831
LiPuO3,Li,Pu,orthorhombic,-2.653,-0.046,0.6,12.122,1.5919999999999999,5.445,5.519,8.067,90,90,90,0.6940000000000001
LiRbO3,Li,Rb,cubic,0.449,1.733,-,16.305999999999997,0.0,4.336,4.336,4.336,90,90,90,-13.374
LiReO3,Li,Re,rhombohedral,-1.921,0.067,0.003,10.067,0.0,5.309,5.309,5.309,57.9,57.9,57.9,3.622
LiRhO3,Li,Rh,orthorhombic,-1.253,0.051,0.135,9.29,0.0,4.97,5.147,7.264,90,90,90,-0.04
LiRuO3,Li,Ru,rhombohedral,-1.495,-0.028999999999999998,0,9.662,0.0,5.197,5.197,5.197,58.8,58.8,58.8,1.489
LiSbO3,Li,Sb,rhombohedral,-1.906,0.049,-,10.472000000000001,2.403,5.371,5.371,5.371,58.1,58.1,58.1,2.451
LiScO3,Li,Sc,cubic,-2.008,0.594,0.4,13.484000000000002,0.0,4.07,4.07,4.07,90,90,90,-1.7009999999999998
LiSiO3,Li,Si,orthorhombic,-2.248,0.33,-,8.016,0.0,4.785,4.929,6.797,90,90,90,-0.049
LiSmO3,Li,Sm,cubic,-1.7690000000000001,0.763,0.4,17.683,0.0,4.455,4.455,4.455,90,90,90,-2.137
LiSnO3,Li,Sn,orthorhombic,-1.6230000000000002,0.24,-,10.63,2.9539999999999997,5.388,5.467,7.217,90,90,90,-0.934
LiSrO3,Li,Sr,cubic,-0.716,1.228,-,18.211,0.0,4.499,4.499,4.499,90,90,90,-8.016
LiTaO3,Li,Ta,rhombohedral,-2.95,0.016,0,10.582,3.5439999999999996,5.444,5.444,5.444,56.9,56.9,56.9,5.721
LiTbO3,Li,Tb,cubic,-1.733,0.7290000000000001,0.4,16.632,0.0,4.365,4.365,4.365,90,90,90,-1.9980000000000002
LiTcO3,Li,Tc,rhombohedral,-1.847,-0.017,0.125,9.911,0.0,5.284,5.284,5.284,57.8,57.8,57.8,3.0410000000000004
LiTeO3,Li,Te,rhombohedral,-1.52,0.124,-,11.299000000000001,0.0,5.524,5.524,5.524,57.7,57.7,57.7,1.4069999999999998
LiThO3,Li,Th,cubic,-2.5639999999999996,0.627,0.1,17.962,0.0,4.478,4.478,4.478,90,90,90,-0.41100000000000003
LiTiO3,Li,Ti,orthorhombic,-2.454,0.222,0.199,9.642999999999999,0.0,5.08,5.396,7.036,90,90,90,-0.779
LiTlO3,Li,Tl,cubic,-0.39299999999999996,0.757,-,14.78,0.0,4.196,4.196,4.196,90,90,90,-2.8160000000000003
LiTmO3,Li,Tm,cubic,-1.963,0.685,0.4,15.693,0.0,4.281,4.281,4.281,90,90,90,-1.7890000000000001
LiUO3,Li,U,rhombohedral,-3.1460000000000004,0.0,0.2,12.908,3.281,5.888,5.888,5.888,55.4,55.4,55.4,4.056
LiVO3,Li,V,tetragonal,-2.299,0.07400000000000001,0,11.23,0.815,3.608,3.608,4.312,90,90,90,2.005
LiWO3,Li,W,rhombohedral,-2.351,0.055999999999999994,0,10.409,0.0,5.394,5.394,5.394,57.3,57.3,57.3,4.814
LiYO3,Li,Y,cubic,-1.858,0.728,0.4,16.658,0.0,4.367,4.367,4.367,90,90,90,-2.006
LiYbO3,Li,Yb,cubic,-1.088,1.031,-,14.555,0.0,4.175,4.175,4.175,90,90,90,-6.734
LiZnO3,Li,Zn,cubic,-0.625,0.75,-,11.03,0.0,3.806,3.806,3.806,90,90,90,-4.268
LiZrO3,Li,Zr,rhombohedral,-2.6069999999999998,0.247,0.2,11.774000000000001,0.0,5.64,5.64,5.64,56.9,56.9,56.9,-0.792
LuAcO3,Lu,Ac,orthorhombic,-3.553,0.24,0,16.779,3.32,6.073,6.194,8.921,90,90,90,0.046
LuAgO3,Lu,Ag,cubic,-1.295,0.7979999999999999,0,12.777000000000001,0.0,3.998,3.998,3.998,90,90,90,-0.965
LuAlO3,Lu,Al,orthorhombic,-3.622,-0.008,0,9.847999999999999,6.1739999999999995,5.078,5.326,7.283,90,90,90,6.178999999999999
LuAsO3,Lu,As,cubic,-1.7730000000000001,0.945,0,12.537,0.0,3.972,3.972,3.972,90,90,90,1.859
LuAuO3,Lu,Au,cubic,-1.148,0.973,0,13.557,0.0,4.077,4.077,4.077,90,90,90,-1.0490000000000002
LuBO3,Lu,B,cubic,-2.525,0.88,0,7.901,3.125,3.406,3.406,3.406,90,90,90,5.405
LuBaO3,Lu,Ba,orthorhombic,-2.8710000000000004,0.29100000000000004,0.2,17.7,0.642,6.409,6.753,8.18,90,90,90,-8.533
LuBeO3,Lu,Be,tetragonal,-2.8139999999999996,0.354,0.02,9.222000000000001,0.0,3.241,3.241,4.388,90,90,90,-1.355
LuBiO3,Lu,Bi,cubic,-1.379,1.339,0,16.542,0.0,4.357,4.357,4.357,90,90,90,0.107
LuCaO3,Lu,Ca,cubic,-1.996,1.276,0,13.788,0.0,4.1,4.1,4.1,90,90,90,-3.5039999999999996
LuCdO3,Lu,Cd,cubic,-1.455,1.021,0,13.49,0.0,4.071,4.071,4.071,90,90,90,-1.4680000000000002
LuCeO3,Lu,Ce,cubic,-2.148,1.5930000000000002,0.003,18.538,0.0,4.526,4.526,4.526,90,90,90,1.61
LuCoO3,Lu,Co,orthorhombic,-2.573,0.035,0,10.328,1.41,5.114,5.546,7.283,90,90,90,1.89
LuCrO3,Lu,Cr,orthorhombic,-3.233,-0.011000000000000001,0.6,10.7,2.3930000000000002,5.175,5.519,7.493,90,90,90,3.926
LuCuO3,Lu,Cu,orthorhombic,-2.309,0.018000000000000002,0,10.498,0.273,5.121,5.809,7.059,90,90,90,0.256
LuDyO3,Lu,Dy,cubic,-2.753,1.153,0,15.334000000000001,0.591,4.248,4.248,4.248,90,90,90,-0.415
LuErO3,Lu,Er,cubic,-2.8560000000000003,1.073,0,14.843,0.878,4.202,4.202,4.202,90,90,90,0.359
LuEuO3,Lu,Eu,orthorhombic,-3.128,0.22699999999999998,0.2,14.799000000000001,0.0,5.582,5.682,9.331,90,90,90,-3.424
LuFeO3,Lu,Fe,orthorhombic,-2.8080000000000003,0.001,1,10.832,1.263,5.197,5.533,7.534,90,90,90,2.7260000000000004
LuGaO3,Lu,Ga,orthorhombic,-3.002,0.03,0,10.647,4.106,5.172,5.507,7.477,90,90,90,4.166
LuGdO3,Lu,Gd,cubic,-2.635,1.242,0,15.96,0.41700000000000004,4.305,4.305,4.305,90,90,90,-1.222
LuGeO3,Lu,Ge,cubic,-2.095,0.736,0,11.32,0.0,3.84,3.84,3.84,90,90,90,2.5140000000000002
LuHfO3,Lu,Hf,cubic,-3.008,0.701,0,13.440999999999999,0.0,4.066,4.066,4.066,90,90,90,4.2669999999999995
LuHgO3,Lu,Hg,cubic,-1.018,1.1440000000000001,-0.005,14.494000000000002,0.0,4.169,4.169,4.169,90,90,90,-1.412
LuHoO3,Lu,Ho,cubic,-2.8080000000000003,1.11,0,15.148,0.884,4.231,4.231,4.231,90,90,90,-0.008
LuInO3,Lu,In,cubic,-2.01,0.893,0,13.548,0.993,4.076,4.076,4.076,90,90,90,2.407
LuIrO3,Lu,Ir,cubic,-1.5130000000000001,0.9470000000000001,0,12.177999999999999,0.0,3.934,3.934,3.934,90,90,90,-1.445
LuKO3,Lu,K,orthorhombic,-2.1,0.45799999999999996,0.4,17.209,0.0,5.756,5.773,10.357,90,90,90,-4.315
LuLaO3,Lu,La,cubic,-2.27,1.567,0,18.197,0.0,4.498,4.498,4.498,90,90,90,1.3090000000000002
LuLiO3,Lu,Li,cubic,-2.031,0.632,0.399,9.19,0.0,3.582,3.582,3.582,90,90,90,-1.761
Lu2O3,Lu,Lu,cubic,-3.0039999999999996,0.9570000000000001,0,14.132,0.853,4.134,4.134,4.134,90,90,90,1.406
LuMgO3,Lu,Mg,cubic,-2.506,0.662,0.198,10.73,0.0,3.772,3.772,3.772,90,90,90,-2.022
LuMnO3,Lu,Mn,orthorhombic,-2.9819999999999998,0.052000000000000005,0.8,10.870999999999999,0.42200000000000004,5.189,5.658,7.406,90,90,90,3.157
LuMoO3,Lu,Mo,cubic,-2.1430000000000002,0.8079999999999999,0.002,12.264000000000001,0.0,3.943,3.943,3.943,90,90,90,1.071
LuNaO3,Lu,Na,cubic,-1.3119999999999998,1.248,0.4,11.722999999999999,0.0,3.885,3.885,3.885,90,90,90,-3.364
LuNbO3,Lu,Nb,cubic,-2.467,0.789,0,12.972999999999999,0.0,4.018,4.018,4.018,90,90,90,2.6189999999999998
LuNdO3,Lu,Nd,cubic,-2.329,1.462,0,17.500999999999998,0.0,4.44,4.44,4.44,90,90,90,2.364
LuNiO3,Lu,Ni,orthorhombic,-2.44,0.037000000000000005,0.2,10.119,0.0,5.054,5.53,7.241,90,90,90,0.736
LuNpO3,Lu,Np,cubic,-2.448,1.301,0.736,17.011,0.0,4.398,4.398,4.398,90,90,90,1.495
LuOsO3,Lu,Os,cubic,-1.558,0.946,0.003,12.077,0.0,3.923,3.923,3.923,90,90,90,-0.503
LuPaO3,Lu,Pa,cubic,-2.289,1.0859999999999999,0.199,17.730999999999998,0.0,4.459,4.459,4.459,90,90,90,2.285
LuPbO3,Lu,Pb,cubic,-1.358,1.239,0,15.545,0.0,4.268,4.268,4.268,90,90,90,0.42700000000000005
LuPdO3,Lu,Pd,cubic,-1.578,0.662,-0.001,12.159,0.0,3.932,3.932,3.932,90,90,90,-0.618
LuPmO3,Lu,Pm,cubic,-2.42,1.399,0,17.017,0.0,4.398,4.398,4.398,90,90,90,-2.609
LuPrO3,Lu,Pr,cubic,-2.244,1.525,0,17.971,0.0,4.479,4.479,4.479,90,90,90,2.0069999999999997
LuPtO3,Lu,Pt,cubic,-1.4180000000000001,0.9109999999999999,0,12.753,0.0,3.995,3.995,3.995,90,90,90,-0.951
LuPuO3,Lu,Pu,cubic,-2.506,1.291,0.874,16.523,0.0,4.355,4.355,4.355,90,90,90,2.614
LuRbO3,Lu,Rb,cubic,-0.349,2.201,0.012,16.095,0.0,4.317,4.317,4.317,90,90,90,-3.998
LuReO3,Lu,Re,cubic,-1.7690000000000001,0.981,0.138,12.132,0.0,3.929,3.929,3.929,90,90,90,-0.465
LuRhO3,Lu,Rh,cubic,-1.7280000000000002,0.72,0.001,11.811,0.0,3.894,3.894,3.894,90,90,90,-0.647
LuRuO3,Lu,Ru,cubic,-1.7790000000000001,0.772,0.14,11.815999999999999,0.0,3.895,3.895,3.895,90,90,90,0.094
LuSbO3,Lu,Sb,cubic,-1.597,1.1740000000000002,0,14.725999999999999,0.0,4.191,4.191,4.191,90,90,90,0.01
LuScO3,Lu,Sc,cubic,-3.1889999999999996,0.696,0,12.449000000000002,2.638,3.963,3.963,3.963,90,90,90,4.801
LuSiO3,Lu,Si,cubic,-2.5540000000000003,0.8759999999999999,0.001,9.658,0.0,3.642,3.642,3.642,90,90,90,4.364
LuSmO3,Lu,Sm,cubic,-2.478,1.354,0,16.714000000000002,0.0,4.372,4.372,4.372,90,90,90,-1.156
LuSnO3,Lu,Sn,cubic,-1.88,0.996,0.001,13.655,0.0,4.087,4.087,4.087,90,90,90,2.1790000000000003
LuSrO3,Lu,Sr,orthorhombic,-2.972,0.24600000000000002,0.2,15.952,0.922,6.174,6.355,8.132,90,90,90,-5.38
LuTaO3,Lu,Ta,cubic,-2.552,0.807,0,12.78,0.0,3.998,3.998,3.998,90,90,90,2.596
LuTbO3,Lu,Tb,cubic,-2.565,1.196,0,15.633,0.593,4.276,4.276,4.276,90,90,90,-0.812
LuTcO3,Lu,Tc,cubic,-1.949,0.797,0.319,12.024000000000001,0.0,3.917,3.917,3.917,90,90,90,0.535
LuTeO3,Lu,Te,cubic,-1.294,1.305,0.001,15.095999999999998,0.0,4.226,4.226,4.226,90,90,90,0.34600000000000003
LuThO3,Lu,Th,cubic,-2.682,1.206,0.008,18.873,0.0,4.553,4.553,4.553,90,90,90,1.859
LuTiO3,Lu,Ti,orthorhombic,-3.4819999999999998,0.06,0.2,11.046,0.0,5.222,5.601,7.553,90,90,90,4.341
LuTlO3,Lu,Tl,orthorhombic,-2.3,0.149,0,13.620999999999999,1.053,5.447,5.792,8.636,90,90,90,0.315
LuTmO3,Lu,Tm,cubic,-2.9189999999999996,1.0270000000000001,0,14.578,1.025,4.177,4.177,4.177,90,90,90,0.782
LuUO3,Lu,U,cubic,-2.4730000000000003,1.227,0.451,16.973,0.0,4.395,4.395,4.395,90,90,90,1.311
LuVO3,Lu,V,cubic,-2.7430000000000003,0.5529999999999999,0.4,11.209000000000001,0.0,3.827,3.827,3.827,90,90,90,3.721
LuWO3,Lu,W,cubic,-2.068,0.96,0,12.337,0.0,3.951,3.951,3.951,90,90,90,0.59
LuYO3,Lu,Y,cubic,-2.7289999999999996,1.156,0,15.312999999999999,0.868,4.246,4.246,4.246,90,90,90,-0.40399999999999997
LuYbO3,Lu,Yb,cubic,-2.241,1.143,-0.159,13.552,0.0,4.077,4.077,4.077,90,90,90,-2.456
LuZnO3,Lu,Zn,cubic,-2.055,0.586,0,10.763,0.0,3.775,3.775,3.775,90,90,90,-0.648
LuZrO3,Lu,Zr,cubic,-2.8339999999999996,0.7909999999999999,0,13.993,0.0,4.121,4.121,4.121,90,90,90,3.8819999999999997
MgAgO3,Mg,Ag,cubic,-0.491,0.812,-,12.494000000000002,0.0,3.968,3.968,3.968,90,90,90,-2.412
MgAlO3,Mg,Al,orthorhombic,-2.611,0.247,-,8.956,0.0,5.029,5.273,6.754,90,90,90,-1.0290000000000001
MgAsO3,Mg,As,cubic,-1.46,0.653,-,11.102,0.0,3.815,3.815,3.815,90,90,90,1.423
MgAuO3,Mg,Au,cubic,-0.507,0.821,-,12.832,0.0,4.003,4.003,4.003,90,90,90,-1.62
MgBO3,Mg,B,cubic,-1.546,1.046,-,7.318,0.0,3.32,3.32,3.32,90,90,90,-1.9380000000000002
MgBaO3,Mg,Ba,orthorhombic,-2.189,0.261,-,15.988,2.388,6.136,6.627,7.863,90,90,90,-0.976
MgBeO3,Mg,Be,cubic,-1.631,0.7509999999999999,-,8.068,0.0,3.43,3.43,3.43,90,90,90,-3.208
MgBiO3,Mg,Bi,cubic,-1.143,0.8140000000000001,-,15.302,0.0,4.245,4.245,4.245,90,90,90,0.423
MgCaO3,Mg,Ca,cubic,-1.14,1.3430000000000002,-,14.693,0.0,4.188,4.188,4.188,90,90,90,-5.013999999999999
MgCdO3,Mg,Cd,cubic,-0.643,1.047,-,13.302,0.0,4.052,4.052,4.052,90,90,90,-3.3960000000000004
MgCeO3,Mg,Ce,orthorhombic,-2.7110000000000003,0.23600000000000002,0.2,14.417,0.613,5.674,5.946,8.548,90,90,90,-3.54
MgCrO3,Mg,Cr,cubic,-1.9369999999999998,0.564,0.399,10.386,0.0,3.731,3.731,3.731,90,90,90,0.439
MgCsO3,Mg,Cs,cubic,0.051,1.871,-,17.518,0.0,4.441,4.441,4.441,90,90,90,-2.627
MgCuO3,Mg,Cu,cubic,-0.976,0.5429999999999999,-,9.902000000000001,0.0,3.672,3.672,3.672,90,90,90,-1.7890000000000001
MgDyO3,Mg,Dy,cubic,-2.039,1.073,0.2,15.418,0.0,4.256,4.256,4.256,90,90,90,-2.681
MgErO3,Mg,Er,cubic,-2.104,1.032,0.2,14.993,0.0,4.217,4.217,4.217,90,90,90,-2.5660000000000003
MgEuO3,Mg,Eu,orthorhombic,-2.4130000000000003,0.141,0,12.876,2.525,5.899,6.062,7.202,90,90,90,-4.319
MgFeO3,Mg,Fe,orthorhombic,-1.954,0.1,0.799,9.425,0.0,4.977,5.215,7.262,90,90,90,0.07
MgGaO3,Mg,Ga,cubic,-1.594,0.6729999999999999,-,10.83,0.0,3.783,3.783,3.783,90,90,90,-2.133
MgGdO3,Mg,Gd,cubic,-1.9680000000000002,1.115,0.2,15.978,0.0,4.307,4.307,4.307,90,90,90,-2.812
MgGeO3,Mg,Ge,cubic,-1.882,0.522,-,10.036,1.5759999999999998,3.688,3.688,3.688,90,90,90,3.0239999999999996
MgHfO3,Mg,Hf,cubic,-2.878,0.604,0,13.227,1.0090000000000001,4.044,4.044,4.044,90,90,90,3.554
MgHgO3,Mg,Hg,cubic,-0.386,0.991,-,13.835999999999999,0.0,4.105,4.105,4.105,90,90,90,-2.924
MgHoO3,Mg,Ho,cubic,-2.073,1.051,0.2,15.199000000000002,0.0,4.236,4.236,4.236,90,90,90,-2.614
MgInO3,Mg,In,cubic,-1.187,0.922,-,13.515,0.0,4.073,4.073,4.073,90,90,90,-2.595
MgIrO3,Mg,Ir,cubic,-1.0170000000000001,0.8,0.193,11.844000000000001,0.0,3.898,3.898,3.898,90,90,90,-0.16399999999999998
MgKO3,Mg,K,cubic,0.264,2.092,-,14.585999999999999,0.0,4.178,4.178,4.178,90,90,90,-4.74
MgLaO3,Mg,La,orthorhombic,-2.815,0.22899999999999998,0.2,14.3,0.655,5.56,5.995,8.58,90,90,90,-3.153
MgLiO3,Mg,Li,cubic,-0.861,1.033,-,8.925,0.0,3.547,3.547,3.547,90,90,90,-4.988
MgLuO3,Mg,Lu,cubic,-2.202,0.966,0.199,14.42,0.0,4.162,4.162,4.162,90,90,90,-2.3819999999999997
Mg2O3,Mg,Mg,cubic,-1.465,0.909,-,10.992,0.0,3.802,3.802,3.802,90,90,90,-3.239
MgMnO3,Mg,Mn,orthorhombic,-2.219,0.077,0.6,9.249,0.705,4.951,5.183,7.208,90,90,90,0.004
MgMoO3,Mg,Mo,cubic,-1.9240000000000002,0.597,0.001,11.972000000000001,0.0,3.912,3.912,3.912,90,90,90,3.429
MgNaO3,Mg,Na,cubic,-0.20800000000000002,1.597,-,12.395999999999999,0.0,3.957,3.957,3.957,90,90,90,-9.354
MgNbO3,Mg,Nb,cubic,-2.323,0.529,0,12.767000000000001,0.0,3.997,3.997,3.997,90,90,90,4.379
MgNdO3,Mg,Nd,orthorhombic,-2.762,0.289,0.2,13.927999999999999,0.68,5.633,5.854,8.447,90,90,90,-3.2889999999999997
MgNiO3,Mg,Ni,cubic,-1.102,0.59,0.001,9.771,0.0,3.656,3.656,3.656,90,90,90,-1.5390000000000001
MgNpO3,Mg,Np,orthorhombic,-3.18,0.225,0.6,13.120999999999999,2.588,5.597,5.647,8.303,90,90,90,1.7469999999999999
MgOsO3,Mg,Os,cubic,-1.213,0.662,0.21,11.75,0.0,3.888,3.888,3.888,90,90,90,1.023
MgPaO3,Mg,Pa,cubic,-2.381,0.657,0.009,16.741,0.0,4.374,4.374,4.374,90,90,90,4.613
MgPbO3,Mg,Pb,cubic,-1.047,0.8,-,14.514000000000001,0.0,4.171,4.171,4.171,90,90,90,0.44
MgPdO3,Mg,Pd,cubic,-0.7979999999999999,0.6579999999999999,-,11.828,0.0,3.896,3.896,3.896,90,90,90,-1.351
MgPmO3,Mg,Pm,orthorhombic,-2.7910000000000004,0.235,0.201,13.692,0.7020000000000001,5.61,5.817,8.392,90,90,90,-3.15
MgPrO3,Mg,Pr,orthorhombic,-2.739,0.23600000000000002,0.2,14.145,0.821,5.647,5.893,8.5,90,90,90,-3.347
MgPtO3,Mg,Pt,cubic,-0.805,0.818,0.06,12.165999999999999,0.0,3.933,3.933,3.933,90,90,90,-1.306
MgPuO3,Mg,Pu,orthorhombic,-3.0869999999999997,0.061,0.8,12.91,1.564,5.567,5.617,8.258,90,90,90,1.122
MgRbO3,Mg,Rb,cubic,0.24600000000000002,2.061,-,15.38,0.0,4.252,4.252,4.252,90,90,90,-3.9739999999999998
MgReO3,Mg,Re,cubic,-1.558,0.645,0,11.844000000000001,0.0,3.898,3.898,3.898,90,90,90,1.669
MgRhO3,Mg,Rh,cubic,-1.067,0.7340000000000001,0.26,11.64,0.0,3.875,3.875,3.875,90,90,90,-0.243
MgRuO3,Mg,Ru,cubic,-1.29,0.648,0.395,11.615,0.0,3.873,3.873,3.873,90,90,90,1.013
MgSbO3,Mg,Sb,cubic,-1.4780000000000002,0.742,-,13.339,0.0,4.055,4.055,4.055,90,90,90,1.8780000000000001
MgScO3,Mg,Sc,cubic,-2.279,0.812,0.001,12.847000000000001,0.0,4.005,4.005,4.005,90,90,90,-2.2430000000000003
MgSiO3,Mg,Si,orthorhombic,-2.8689999999999998,0.20800000000000002,-,8.157,5.946000000000001,4.783,4.936,6.91,90,90,90,5.267
MgSmO3,Mg,Sm,orthorhombic,-2.805,0.23199999999999998,0.201,13.55,0.726,5.593,5.79,8.368,90,90,90,-3.053
MgSnO3,Mg,Sn,cubic,-1.725,0.625,-,12.762,1.143,3.996,3.996,3.996,90,90,90,2.673
MgSrO3,Mg,Sr,cubic,-0.8640000000000001,1.61,-,16.705,0.0,4.371,4.371,4.371,90,90,90,-6.291
MgTaO3,Mg,Ta,cubic,-2.49,0.505,0,12.58,0.0,3.977,3.977,3.977,90,90,90,4.98
MgTbO3,Mg,Tb,cubic,-1.874,1.094,0.2,15.697000000000001,0.0,4.282,4.282,4.282,90,90,90,-2.742
MgTcO3,Mg,Tc,cubic,-1.598,0.6,0.002,11.617,0.0,3.873,3.873,3.873,90,90,90,1.992
MgTeO3,Mg,Te,cubic,-1.178,0.833,-,14.315,0.0,4.152,4.152,4.152,90,90,90,1.4809999999999999
MgThO3,Mg,Th,cubic,-2.537,1.1840000000000002,-0.001,18.682000000000002,0.0,4.537,4.537,4.537,90,90,90,2.296