formula,atom a,atom b,lowest distortion,e_form,e_hull,mu_b,vpa,gap pbe,a,b,c,alpha,beta,gamma,e_form oxygen
RePrO3,Re,Pr,cubic,-0.332,2.269,0.796,17.703,0.0,4.457,4.457,4.457,90,90,90,-10.185
RePtO3,Re,Pt,cubic,0.629,2.15,0.879,12.62,0.0,3.981,3.981,3.981,90,90,90,-5.687
RePuO3,Re,Pu,cubic,-0.93,1.655,1.795,16.395,0.0,4.344,4.344,4.344,90,90,90,-5.018
Re2O3,Re,Re,cubic,-0.08,1.4569999999999999,0.922,12.142999999999999,0.0,3.93,3.93,3.93,90,90,90,-2.688
ReRuO3,Re,Ru,cubic,0.17,1.6909999999999998,0.61,11.895,0.0,3.903,3.903,3.903,90,90,90,-3.005
ReSbO3,Re,Sb,cubic,-0.026000000000000002,1.5390000000000001,1.054,13.731,0.0,4.095,4.095,4.095,90,90,90,-1.994
ReScO3,Re,Sc,cubic,-1.013,1.659,0.799,12.644,0.0,3.984,3.984,3.984,90,90,90,-5.351
ReSiO3,Re,Si,cubic,-0.8029999999999999,1.554,0.979,9.603,0.0,3.635,3.635,3.635,90,90,90,3.363
ReSmO3,Re,Sm,cubic,-0.47600000000000003,2.211,0.801,16.662,0.0,4.367,4.367,4.367,90,90,90,-9.59
ReSnO3,Re,Sn,cubic,-0.24100000000000002,1.443,1,13.171,0.0,4.038,4.038,4.038,90,90,90,1.359
ReSrO3,Re,Sr,rhombohedral,-2.039,0.312,0.2,16.11,0.0,5.959,5.959,5.959,63.5,63.5,63.5,-16.04
ReTaO3,Re,Ta,cubic,-1.0590000000000002,1.3880000000000001,0.947,12.819,0.0,4.002,4.002,4.002,90,90,90,1.98
ReTbO3,Re,Tb,cubic,-0.49700000000000005,2.052,0.879,15.843,0.0,4.295,4.295,4.295,90,90,90,-8.783999999999999
ReTcO3,Re,Tc,cubic,-0.107,1.4280000000000002,0.832,11.892999999999999,0.0,3.903,3.903,3.903,90,90,90,-2.294
ReTeO3,Re,Te,cubic,0.254,1.775,1.042,14.554,0.0,4.175,4.175,4.175,90,90,90,-2.8360000000000003
ReThO3,Re,Th,cubic,-1.156,1.899,1.011,18.697,0.0,4.538,4.538,4.538,90,90,90,1.268
ReTiO3,Re,Ti,cubic,-1.162,1.296,0.994,11.687000000000001,0.0,3.88,3.88,3.88,90,90,90,-2.031
ReTlO3,Re,Tl,rhombohedral,-1.3330000000000002,0.266,0,18.698,0.0,6.023,6.023,6.023,70.1,70.1,70.1,-11.357000000000001
ReTmO3,Re,Tm,cubic,-0.8109999999999999,1.9480000000000002,0.802,14.85,0.0,4.203,4.203,4.203,90,90,90,-7.599
ReUO3,Re,U,cubic,-1.274,1.53,0.928,16.503,0.0,4.354,4.354,4.354,90,90,90,5.32
ReVO3,Re,V,cubic,-0.713,1.371,1.199,11.248,0.0,3.831,3.831,3.831,90,90,90,-3.179
ReWO3,Re,W,cubic,-0.49,1.4669999999999999,0.935,12.265999999999998,0.0,3.944,3.944,3.944,90,90,90,-0.789
ReYO3,Re,Y,cubic,-0.649,2.024,0.799,15.722000000000001,0.0,4.284,4.284,4.284,90,90,90,-8.485
ReYbO3,Re,Yb,rhombohedral,-2.131,0.297,0.2,13.64,0.0,5.659,5.659,5.659,62.9,62.9,62.9,-13.025
ReZnO3,Re,Zn,cubic,0.156,1.841,0.726,10.853,0.0,3.786,3.786,3.786,90,90,90,-7.4510000000000005
ReZrO3,Re,Zr,cubic,-1.227,1.465,1,14.093,0.0,4.13,4.13,4.13,90,90,90,-2.419
RhAcO3,Rh,Ac,orthorhombic,-1.964,0.37,0,15.415999999999999,0.3,5.788,6.016,8.855,90,90,90,-6.432
RhAgO3,Rh,Ag,cubic,0.585,1.314,0.733,12.73,0.0,3.993,3.993,3.993,90,90,90,-6.797000000000001
RhAlO3,Rh,Al,cubic,-1.32,0.779,0.618,9.753,0.0,3.653,3.653,3.653,90,90,90,-1.36
RhAsO3,Rh,As,cubic,-0.341,0.852,0.523,10.905,0.0,3.792,3.792,3.792,90,90,90,0.405
RhAuO3,Rh,Au,cubic,0.588,1.305,0.672,13.085999999999999,0.0,4.03,4.03,4.03,90,90,90,-1.524
RhBO3,Rh,B,cubic,-0.449,1.329,0.012,7.636,0.0,3.367,3.367,3.367,90,90,90,-1.124
RhBaO3,Rh,Ba,rhombohedral,-1.536,0.29600000000000004,0.2,18.006,0.0,6.182,6.182,6.182,63.5,63.5,63.5,-11.435
RhBeO3,Rh,Be,cubic,-0.7759999999999999,1.033,0.002,8.012,0.0,3.422,3.422,3.422,90,90,90,-3.7
RhBiO3,Rh,Bi,cubic,-0.14300000000000002,1.0959999999999999,0.491,14.765999999999998,0.0,4.195,4.195,4.195,90,90,90,-3.897
RhCaO3,Rh,Ca,orthorhombic,-1.6159999999999999,0.326,0.011,13.044,0.0,5.574,5.582,8.384,90,90,90,-9.227
RhCdO3,Rh,Cd,cubic,0.419,1.536,0.773,13.700999999999999,0.0,4.092,4.092,4.092,90,90,90,-8.318999999999999
RhCeO3,Rh,Ce,orthorhombic,-1.895,0.39299999999999996,0,14.210999999999999,0.48,5.604,5.941,8.537,90,90,90,-6.947
RhCoO3,Rh,Co,cubic,-0.195,0.9570000000000001,1.061,9.984,0.0,3.682,3.682,3.682,90,90,90,-0.711
RhCrO3,Rh,Cr,cubic,-0.8029999999999999,0.905,0.867,10.584000000000001,0.0,3.754,3.754,3.754,90,90,90,-1.031
RhCuO3,Rh,Cu,cubic,0.102,1.047,0.809,10.267000000000001,0.0,3.717,3.717,3.717,90,90,90,-4.112
RhDyO3,Rh,Dy,cubic,-1.03,1.3619999999999999,0.801,15.805,0.0,4.291,4.291,4.291,90,90,90,-5.792000000000001
RhErO3,Rh,Er,cubic,-1.097,1.319,0.806,15.362,0.0,4.251,4.251,4.251,90,90,90,-5.457999999999999
RhEuO3,Rh,Eu,orthorhombic,-1.726,0.38299999999999995,0.001,13.343,0.0,5.699,5.881,7.961,90,90,90,-9.624
RhFeO3,Rh,Fe,cubic,-0.44799999999999995,0.8440000000000001,1.522,10.772,0.0,3.776,3.776,3.776,90,90,90,-2.494
RhGaO3,Rh,Ga,cubic,-0.5670000000000001,0.951,0.802,11.032,0.0,3.807,3.807,3.807,90,90,90,-2.905
RhGdO3,Rh,Gd,cubic,-0.9570000000000001,1.4509999999999998,0.816,16.285,0.0,4.334,4.334,4.334,90,90,90,-6.12
RhGeO3,Rh,Ge,cubic,-0.6859999999999999,0.758,0.597,10.376,0.0,3.73,3.73,3.73,90,90,90,1.023
RhHfO3,Rh,Hf,cubic,-1.79,0.825,0.599,13.338,0.0,4.055,4.055,4.055,90,90,90,0.07200000000000001
RhHgO3,Rh,Hg,cubic,0.7190000000000001,1.524,0.676,14.148,0.0,4.136,4.136,4.136,90,90,90,-8.149
RhHoO3,Rh,Ho,cubic,-1.065,1.339,0.803,15.578,0.0,4.271,4.271,4.271,90,90,90,-5.625
RhInO3,Rh,In,cubic,-0.154,1.235,0.804,13.866,0.0,4.108,4.108,4.108,90,90,90,-5.19
RhIrO3,Rh,Ir,cubic,-0.006999999999999999,0.943,0.506,11.719000000000001,0.0,3.884,3.884,3.884,90,90,90,0.624
RhKO3,Rh,K,orthorhombic,-0.9940000000000001,0.22699999999999998,0.002,16.044,0.0,4.929,6.144,10.596,90,90,90,-7.437
RhLaO3,Rh,La,orthorhombic,-2.013,0.373,0,14.145999999999999,0.397,5.623,5.901,8.525,90,90,90,-6.598
RhLiO3,Rh,Li,cubic,0.011000000000000001,1.315,0.002,8.517999999999999,0.0,3.492,3.492,3.492,90,90,90,-6.907
RhLuO3,Rh,Lu,cubic,-1.197,1.251,0.8,14.690999999999999,0.0,4.188,4.188,4.188,90,90,90,-4.931
RhMgO3,Rh,Mg,cubic,-0.519,1.2819999999999998,0.001,10.46,0.0,3.74,3.74,3.74,90,90,90,-6.273
RhMnO3,Rh,Mn,cubic,-0.637,0.851,1.333,10.655999999999999,0.0,3.763,3.763,3.763,90,90,90,-1.999
RhMoO3,Rh,Mo,cubic,-1.034,0.6970000000000001,0.396,11.844000000000001,0.0,3.898,3.898,3.898,90,90,90,3.4789999999999996
RhNaO3,Rh,Na,rhombohedral,-0.917,0.316,0.4,13.693,0.24600000000000002,5.797,5.797,5.797,59.7,59.7,59.7,-10.47
RhNbO3,Rh,Nb,cubic,-1.463,0.675,0.4,12.642000000000001,0.0,3.983,3.983,3.983,90,90,90,2.003
RhNdO3,Rh,Nd,orthorhombic,-1.95,0.386,0,13.655,0.355,5.487,5.883,8.46,90,90,90,-6.6979999999999995
RhNiO3,Rh,Ni,cubic,-0.036000000000000004,1.083,1.007,10.05,0.0,3.69,3.69,3.69,90,90,90,-3.845
RhNpO3,Rh,Np,cubic,-1.449,1.089,0.765,15.091,0.0,4.226,4.226,4.226,90,90,90,0.344
RhOsO3,Rh,Os,cubic,-0.29,0.718,0.33,11.54,0.0,3.864,3.864,3.864,90,90,90,2.063
RhPaO3,Rh,Pa,cubic,-1.6230000000000002,0.5479999999999999,0.4,16.43,0.0,4.347,4.347,4.347,90,90,90,1.861
RhPbO3,Rh,Pb,orthorhombic,-0.774,0.377,0,13.606,0.0,5.682,5.766,8.306,90,90,90,-4.748
RhPdO3,Rh,Pd,cubic,0.257,1.139,0.765,12.081,0.0,3.924,3.924,3.924,90,90,90,-2.47
RhPmO3,Rh,Pm,orthorhombic,-1.979,0.382,0,13.388,0.366,5.442,5.853,8.406,90,90,90,-6.557
RhPrO3,Rh,Pr,orthorhombic,-1.925,0.39,-0.001,13.917,0.344,5.542,5.911,8.498,90,90,90,-6.8229999999999995
RhPtO3,Rh,Pt,cubic,0.257,1.1159999999999999,0.72,12.314,0.0,3.949,3.949,3.949,90,90,90,-0.825
RhPuO3,Rh,Pu,cubic,-1.2329999999999999,1.051,1.051,15.818,0.0,4.292,4.292,4.292,90,90,90,-2.62
RhRbO3,Rh,Rb,orthorhombic,-0.9990000000000001,0.185,-0.001,17.660999999999998,0.0,5.056,6.279,11.126,90,90,90,-14.293
RhReO3,Rh,Re,cubic,-0.703,0.8170000000000001,0.37,11.607999999999999,0.0,3.872,3.872,3.872,90,90,90,3.0639999999999996
Rh2O3,Rh,Rh,cubic,-0.004,0.93,0.762,11.681,0.0,3.88,3.88,3.88,90,90,90,0.096
RhRuO3,Rh,Ru,cubic,-0.271,0.8009999999999999,0.312,11.437999999999999,0.0,3.853,3.853,3.853,90,90,90,1.431
RhSbO3,Rh,Sb,cubic,-0.5529999999999999,0.75,0.449,12.63,0.0,3.982,3.982,3.982,90,90,90,1.186
RhSiO3,Rh,Si,cubic,-1.3230000000000002,0.833,0.598,9.094,0.0,3.569,3.569,3.569,90,90,90,2.501
RhSmO3,Rh,Sm,cubic,-0.862,1.5090000000000001,0.808,16.907,0.0,4.389,4.389,4.389,90,90,90,-6.45
RhSnO3,Rh,Sn,cubic,-0.612,0.872,0.6,12.915999999999999,0.0,4.012,4.012,4.012,90,90,90,-0.889
RhSrO3,Rh,Sr,rhombohedral,-1.56,0.29600000000000004,0.2,15.873,0.0,6.032,6.032,6.032,61,61,61,-10.669
RhTaO3,Rh,Ta,cubic,-1.699,0.648,0.4,12.425,0.0,3.961,3.961,3.961,90,90,90,4.232
RhTbO3,Rh,Tb,cubic,-0.863,1.421,0.799,16.037,0.0,4.312,4.312,4.312,90,90,90,-5.957000000000001
RhTcO3,Rh,Tc,cubic,-0.653,0.6779999999999999,0.366,11.526,0.0,3.863,3.863,3.863,90,90,90,2.708
RhTeO3,Rh,Te,cubic,-0.22399999999999998,0.867,0.448,13.509,0.0,4.072,4.072,4.072,90,90,90,0.556
RhThO3,Rh,Th,cubic,-1.555,1.298,0.599,18.402,0.0,4.514,4.514,4.514,90,90,90,-2.589
RhTiO3,Rh,Ti,cubic,-1.5619999999999998,0.695,0.6,11.375,0.0,3.846,3.846,3.846,90,90,90,0.396
RhTlO3,Rh,Tl,orthorhombic,-0.616,0.353,0.001,12.748,0.0,5.372,5.5,8.629,90,90,90,-7.142
RhTmO3,Rh,Tm,cubic,-1.14,1.2919999999999998,0.802,15.091,0.0,4.226,4.226,4.226,90,90,90,-5.247000000000001
RhUO3,Rh,U,cubic,-1.8259999999999998,0.777,0.2,15.838,0.0,4.294,4.294,4.294,90,90,90,1.61
RhVO3,Rh,V,cubic,-1.122,0.6920000000000001,0.576,10.648,0.0,3.762,3.762,3.762,90,90,90,0.276
RhWO3,Rh,W,cubic,-1.155,0.802,0.365,11.860999999999999,0.0,3.9,3.9,3.9,90,90,90,4.107
RhYO3,Rh,Y,cubic,-1.003,1.368,0.804,15.99,0.0,4.308,4.308,4.308,90,90,90,-5.775
RhYbO3,Rh,Yb,orthorhombic,-1.754,0.36,0,12.145999999999999,0.0,5.663,5.678,7.555,90,90,90,-8.752
RhZnO3,Rh,Zn,cubic,-0.016,1.266,0.862,11.062000000000001,0.0,3.81,3.81,3.81,90,90,90,-5.935
RhZrO3,Rh,Zr,cubic,-1.599,0.892,0.6,13.927,0.0,4.114,4.114,4.114,90,90,90,-0.6559999999999999
RuAcO3,Ru,Ac,rhombohedral,-1.999,0.361,0.2,15.776,0.0,5.82,5.82,5.82,66.1,66.1,66.1,-7.459
RuAgO3,Ru,Ag,orthorhombic,-0.6559999999999999,0.209,-0.001,12.837,0.0,5.27,5.493,8.87,90,90,90,-7.277
RuAlO3,Ru,Al,cubic,-1.337,0.865,0.966,9.913,0.0,3.673,3.673,3.673,90,90,90,-0.789
RuAsO3,Ru,As,cubic,-0.26,1.033,0.763,11.264000000000001,0.0,3.833,3.833,3.833,90,90,90,0.531
RuAuO3,Ru,Au,cubic,0.605,1.4580000000000002,0.887,13.136,0.0,4.035,4.035,4.035,90,90,90,-1.34
RuBO3,Ru,B,cubic,-0.446,1.435,0.048,7.562,0.0,3.356,3.356,3.356,90,90,90,-0.679
RuBaO3,Ru,Ba,rhombohedral,-1.7630000000000001,0.261,0.4,18.194000000000003,0.747,6.197,6.197,6.197,63.7,63.7,63.7,-12.327
RuBeO3,Ru,Be,cubic,-0.8240000000000001,1.122,0.009,7.853,0.0,3.399,3.399,3.399,90,90,90,-3.3169999999999997
RuBiO3,Ru,Bi,cubic,-0.047,1.2670000000000001,0.722,15.027000000000001,0.0,4.22,4.22,4.22,90,90,90,-0.245
RuCdO3,Ru,Cd,cubic,0.42100000000000004,1.675,0.958,13.612,0.0,4.083,4.083,4.083,90,90,90,-8.463
RuCeO3,Ru,Ce,orthorhombic,-1.915,0.415,0.002,14.222000000000001,0.0,5.797,5.9,8.318,90,90,90,-7.542999999999999
RuCoO3,Ru,Co,cubic,-0.204,1.056,0.945,9.821,0.0,3.662,3.662,3.662,90,90,90,-2.148
RuCrO3,Ru,Cr,cubic,-0.7909999999999999,1.02,1.344,10.888,0.0,3.79,3.79,3.79,90,90,90,-0.858
RuCuO3,Ru,Cu,cubic,0.071,1.1540000000000001,0.994,10.235,0.0,3.713,3.713,3.713,90,90,90,-4.047
RuDyO3,Ru,Dy,cubic,-0.98,1.515,0.996,15.607000000000001,0.0,4.273,4.273,4.273,90,90,90,-6.081
RuErO3,Ru,Er,cubic,-1.052,1.466,1,15.157,0.0,4.232,4.232,4.232,90,90,90,-5.684
RuEuO3,Ru,Eu,rhombohedral,-1.91,0.35,0.4,14.555,0.235,5.794,5.794,5.794,62.6,62.6,62.6,-10.44
RuFeO3,Ru,Fe,cubic,-0.434,0.9670000000000001,1.763,10.889000000000001,0.0,3.79,3.79,3.79,90,90,90,-2.602
RuGaO3,Ru,Ga,cubic,-0.58,1.04,0.999,11.015999999999998,0.0,3.805,3.805,3.805,90,90,90,-2.497
RuGdO3,Ru,Gd,cubic,-0.9,1.5830000000000002,1,16.101,0.0,4.318,4.318,4.318,90,90,90,-6.474
RuGeO3,Ru,Ge,cubic,-0.637,0.8759999999999999,0.803,10.505999999999998,0.0,3.745,3.745,3.745,90,90,90,0.465
RuHfO3,Ru,Hf,cubic,-1.7369999999999999,0.946,0.798,13.366,0.0,4.058,4.058,4.058,90,90,90,0.708
RuHgO3,Ru,Hg,cubic,0.735,1.676,0.892,14.187999999999999,0.0,4.14,4.14,4.14,90,90,90,-8.577
RuHoO3,Ru,Ho,cubic,-1.0170000000000001,1.49,0.999,15.378,0.0,4.252,4.252,4.252,90,90,90,-5.882000000000001
RuInO3,Ru,In,cubic,-0.142,1.35,1.001,13.767000000000001,0.0,4.098,4.098,4.098,90,90,90,-5.231
RuKO3,Ru,K,orthorhombic,-1.187,0.265,0.2,18.927,0.273,6.246,6.378,9.503,90,90,90,-7.311
RuLaO3,Ru,La,orthorhombic,-2.0340000000000003,0.401,0.004,14.14,0.0,5.835,5.843,8.296,90,90,90,-7.236000000000001
RuLiO3,Ru,Li,orthorhombic,-1.264,0.231,0.039,9.005,0.0,5.092,5.402,6.547,90,90,90,-6.885
RuLuO3,Ru,Lu,cubic,-1.162,1.389,0.998,14.527999999999999,0.0,4.172,4.172,4.172,90,90,90,-5.051
RuMgO3,Ru,Mg,cubic,-0.517,1.421,0.572,10.568,0.0,3.753,3.753,3.753,90,90,90,-6.266
RuMnO3,Ru,Mn,cubic,-0.63,0.97,1.577,10.73,0.0,3.772,3.772,3.772,90,90,90,-1.922
RuMoO3,Ru,Mo,cubic,-0.9,0.83,0.624,11.960999999999999,0.0,3.911,3.911,3.911,90,90,90,3.405
RuNaO3,Ru,Na,orthorhombic,-1.203,0.259,0.001,12.535,0.0,5.361,5.519,8.472,90,90,90,-13.44
RuNbO3,Ru,Nb,cubic,-1.319,0.853,0.613,12.729000000000001,0.0,3.993,3.993,3.993,90,90,90,3.675
RuNdO3,Ru,Nd,cubic,-0.7070000000000001,1.6740000000000002,1,17.444000000000003,0.0,4.435,4.435,4.435,90,90,90,-7.212999999999999
RuNiO3,Ru,Ni,cubic,-0.048,1.208,1.157,9.724,0.0,3.65,3.65,3.65,90,90,90,-3.858
RuNpO3,Ru,Np,cubic,-1.255,1.3519999999999999,1.293,19.101,0.0,4.571,4.571,4.571,90,90,90,-1.629
RuOsO3,Ru,Os,cubic,-0.168,0.94,0.575,11.652999999999999,0.0,3.877,3.877,3.877,90,90,90,1.504
RuPaO3,Ru,Pa,cubic,-1.439,0.8,0.616,16.508,0.0,4.354,4.354,4.354,90,90,90,1.936
RuPdO3,Ru,Pd,cubic,0.264,1.2830000000000001,0.963,12.052999999999999,0.0,3.921,3.921,3.921,90,90,90,-0.8909999999999999
RuPmO3,Ru,Pm,cubic,-0.764,1.6440000000000001,0.999,16.993,0.0,4.396,4.396,4.396,90,90,90,-7.02
RuPrO3,Ru,Pr,cubic,-0.655,1.7369999999999999,1.001,17.87,0.0,4.471,4.471,4.471,90,90,90,-7.374
RuPtO3,Ru,Pt,cubic,0.29600000000000004,1.2930000000000001,0.923,12.332,0.0,3.951,3.951,3.951,90,90,90,-0.609
RuPuO3,Ru,Pu,cubic,-1.218,1.168,1.476,15.901,0.0,4.3,4.3,4.3,90,90,90,-2.4819999999999998
RuRbO3,Ru,Rb,orthorhombic,-1.33,0.124,0.129,17.622,0.0,5.145,6.021,11.379,90,90,90,-5.944
RuReO3,Ru,Re,cubic,-0.5589999999999999,0.9620000000000001,0.611,11.763,0.0,3.889,3.889,3.889,90,90,90,2.343
RuRhO3,Ru,Rh,cubic,0.036000000000000004,1.1079999999999999,0.882,11.671,0.0,3.879,3.879,3.879,90,90,90,-0.138
Ru2O3,Ru,Ru,cubic,-0.19399999999999998,0.946,0.569,11.565,0.0,3.867,3.867,3.867,90,90,90,1.381
RuSbO3,Ru,Sb,cubic,-0.406,0.965,0.682,12.925,0.0,4.013,4.013,4.013,90,90,90,0.985
RuScO3,Ru,Sc,cubic,-1.2590000000000001,1.215,1,12.862,0.0,4.006,4.006,4.006,90,90,90,-3.8539999999999996
RuSiO3,Ru,Si,cubic,-1.2570000000000001,0.9670000000000001,0.8,9.203,0.0,3.583,3.583,3.583,90,90,90,3.678
RuSmO3,Ru,Sm,cubic,-0.797,1.6230000000000002,0.999,16.749000000000002,0.0,4.375,4.375,4.375,90,90,90,-6.881
RuSnO3,Ru,Sn,cubic,-0.564,0.988,0.8,12.952,0.0,4.016,4.016,4.016,90,90,90,1.963
RuSrO3,Ru,Sr,rhombohedral,-1.794,0.23,0.4,16.948,0.598,6.36,6.36,6.36,57,57,57,-11.44
RuTaO3,Ru,Ta,cubic,-1.5319999999999998,0.85,0.602,12.505,0.0,3.969,3.969,3.969,90,90,90,4.265
RuTbO3,Ru,Tb,cubic,-0.809,1.5530000000000002,1.001,15.85,0.0,4.295,4.295,4.295,90,90,90,-6.28
RuTcO3,Ru,Tc,cubic,-0.545,0.855,0.607,11.648,0.0,3.876,3.876,3.876,90,90,90,2.609
RuTeO3,Ru,Te,cubic,-0.102,1.084,0.691,13.96,0.0,4.117,4.117,4.117,90,90,90,0.6970000000000001
RuThO3,Ru,Th,cubic,-1.453,1.469,0.8,18.570999999999998,0.0,4.528,4.528,4.528,90,90,90,-2.55
RuTiO3,Ru,Ti,cubic,-1.5190000000000001,0.807,0.798,11.424000000000001,0.0,3.851,3.851,3.851,90,90,90,0.353
RuTlO3,Ru,Tl,orthorhombic,-0.893,0.215,0,16.289,0.0,5.512,5.747,10.285,90,90,90,-7.584
RuTmO3,Ru,Tm,cubic,-1.1,1.436,0.998,14.917,0.0,4.209,4.209,4.209,90,90,90,-5.434
RuUO3,Ru,U,cubic,-1.6369999999999998,1.035,0.816,15.924000000000001,0.0,4.302,4.302,4.302,90,90,90,1.3259999999999998
RuVO3,Ru,V,cubic,-1.048,0.8370000000000001,0.876,10.785,0.0,3.778,3.778,3.778,90,90,90,-0.6970000000000001
RuWO3,Ru,W,cubic,-0.985,0.972,0.597,11.985999999999999,0.0,3.913,3.913,3.913,90,90,90,3.739
RuYO3,Ru,Y,cubic,-0.951,1.5230000000000001,0.998,15.748,0.0,4.286,4.286,4.286,90,90,90,-6.0760000000000005
RuYbO3,Ru,Yb,orthorhombic,-1.893,0.353,0.042,12.353,0.0,5.422,5.806,7.848,90,90,90,-9.221
RuZnO3,Ru,Zn,cubic,-0.039,1.381,1.041,11.06,0.0,3.81,3.81,3.81,90,90,90,-5.64
RuZrO3,Ru,Zr,cubic,-1.544,1.015,0.801,13.92,0.0,4.113,4.113,4.113,90,90,90,-0.259
SbAgO3,Sb,Ag,orthorhombic,-0.935,0.331,-,13.442,0.20600000000000002,5.427,5.695,8.698,90,90,90,-0.728
SbAlO3,Sb,Al,tetragonal,-2.282,0.141,-,11.23,1.287,3.592,3.592,4.352,90,90,90,4.409
SbAsO3,Sb,As,cubic,-0.813,0.71,-,12.565999999999999,0.0,3.975,3.975,3.975,90,90,90,1.577
SbAuO3,Sb,Au,cubic,-0.15,0.982,-,13.788,0.0,4.1,4.1,4.1,90,90,90,-0.542
SbBO3,Sb,B,cubic,-1.1,1.001,-,8.51,1.554,3.491,3.491,3.491,90,90,90,3.3280000000000003
SbBaO3,Sb,Ba,orthorhombic,-2.061,0.256,-,18.596,0.0,6.125,6.313,9.618,90,90,90,-10.432
SbBeO3,Sb,Be,cubic,-1.364,0.8140000000000001,-,8.818,0.0,3.533,3.533,3.533,90,90,90,-1.17
SbBiO3,Sb,Bi,cubic,-0.6459999999999999,0.89,-,16.093,0.0,4.317,4.317,4.317,90,90,90,0.33
SbCaO3,Sb,Ca,cubic,-0.9470000000000001,1.446,-,14.239,0.0,4.145,4.145,4.145,90,90,90,-6.981
SbCdO3,Sb,Cd,cubic,-0.40399999999999997,1.131,-,13.989,0.0,4.12,4.12,4.12,90,90,90,-4.438
SbCeO3,Sb,Ce,cubic,-1.3259999999999998,1.224,-0.092,18.867,0.0,4.552,4.552,4.552,90,90,90,-5.817
SbCoO3,Sb,Co,cubic,-0.9690000000000001,0.5489999999999999,0,10.413,0.19399999999999998,3.734,3.734,3.734,90,90,90,2.075
SbCrO3,Sb,Cr,orthorhombic,-1.891,0.139,0.6,11.448,0.8109999999999999,5.272,5.679,7.647,90,90,90,2.906
SbCsO3,Sb,Cs,cubic,0.496,2.303,-,18.242,0.0,4.501,4.501,4.501,90,90,90,-10.61
SbCuO3,Sb,Cu,cubic,-0.731,0.604,-,10.74,0.0,3.773,3.773,3.773,90,90,90,0.258
SbDyO3,Sb,Dy,cubic,-1.7830000000000001,0.932,0,15.907,0.0,4.301,4.301,4.301,90,90,90,-2.9939999999999998
SbErO3,Sb,Er,cubic,-1.864,0.8740000000000001,0,15.415999999999999,0.0,4.256,4.256,4.256,90,90,90,-2.358
SbEuO3,Sb,Eu,orthorhombic,-2.293,0.141,0,15.219000000000001,0.0,5.83,6.039,8.645,90,90,90,-7.438
SbFeO3,Sb,Fe,tetragonal,-1.5030000000000001,0.151,0.999,12.504000000000001,0.9059999999999999,3.681,3.681,4.615,90,90,90,1.172
SbGaO3,Sb,Ga,tetragonal,-1.712,0.129,-,12.241,1.364,3.627,3.627,4.653,90,90,90,2.7569999999999997
SbGdO3,Sb,Gd,cubic,-1.6909999999999998,1.06,-0.001,16.49,0.0,4.352,4.352,4.352,90,90,90,-3.655
SbGeO3,Sb,Ge,cubic,-1.148,0.53,-,11.595,0.0,3.87,3.87,3.87,90,90,90,3.445
SbHfO3,Sb,Hf,orthorhombic,-2.438,0.392,0.001,13.398,0.0,5.678,5.75,8.208,90,90,90,3.7910000000000004
SbHgO3,Sb,Hg,orthorhombic,-0.945,0.327,-,14.618,0.0,5.576,5.991,8.752,90,90,90,-4.669
SbHoO3,Sb,Ho,cubic,-1.825,0.902,0,15.65,0.0,4.277,4.277,4.277,90,90,90,-2.668
SbInO3,Sb,In,cubic,-0.9540000000000001,0.758,-,13.882,0.0,4.11,4.11,4.11,90,90,90,-1.0190000000000001
SbIrO3,Sb,Ir,cubic,-0.531,0.779,0,12.498,0.0,3.968,3.968,3.968,90,90,90,-0.04
SbKO3,Sb,K,orthorhombic,-1.599,0.294,-,17.022000000000002,1.6880000000000002,5.053,5.704,11.812,90,90,90,-10.429
SbLaO3,Sb,La,cubic,-1.456,1.2409999999999999,-0.092,18.435,0.0,4.517,4.517,4.517,90,90,90,-5.407
SbLiO3,Sb,Li,cubic,-0.675,1.28,-,9.546,0.0,3.627,3.627,3.627,90,90,90,-5.428
SbLuO3,Sb,Lu,cubic,-1.98,0.79,0,14.675,0.0,4.186,4.186,4.186,90,90,90,-1.4509999999999998
SbMgO3,Sb,Mg,cubic,-1.308,0.912,-,11.4,0.0,3.849,3.849,3.849,90,90,90,-2.504
SbMnO3,Sb,Mn,orthorhombic,-1.6469999999999998,0.20800000000000002,0.8,11.624,0.0,5.287,5.68,7.742,90,90,90,1.3980000000000001
SbMoO3,Sb,Mo,cubic,-1.2919999999999998,0.527,0,12.693,0.0,3.989,3.989,3.989,90,90,90,2.864
SbNaO3,Sb,Na,orthorhombic,-1.6280000000000001,0.294,-,12.545,1.21,4.78,5.215,10.064,90,90,90,-9.071
SbNbO3,Sb,Nb,cubic,-1.725,0.532,0,13.440999999999999,0.0,4.066,4.066,4.066,90,90,90,2.9360000000000004
SbNdO3,Sb,Nd,cubic,-1.4569999999999999,1.2209999999999999,0.039,17.95,0.0,4.477,4.477,4.477,90,90,90,-5.1160000000000005
SbNiO3,Sb,Ni,cubic,-0.87,0.653,0.201,10.581,0.0,3.754,3.754,3.754,90,90,90,0.16699999999999998
SbNpO3,Sb,Np,cubic,-1.8319999999999999,0.9209999999999999,0.531,17.095,0.0,4.405,4.405,4.405,90,90,90,-0.044000000000000004
SbOsO3,Sb,Os,cubic,-0.628,0.711,0.193,12.447000000000001,0.0,3.963,3.963,3.963,90,90,90,0.867
SbPaO3,Sb,Pa,orthorhombic,-2.1430000000000002,0.242,0,16.276,1.179,6.35,6.358,8.062,90,90,90,2.381
SbPbO3,Sb,Pb,orthorhombic,-1.3119999999999998,0.252,-,15.658,0.0,5.862,6.314,8.461,90,90,90,-3.418