formula,atom a,atom b,lowest distortion,e_form,e_hull,mu_b,vpa,gap pbe,a,b,c,alpha,beta,gamma,e_form oxygen
SmNbO3,Sm,Nb,orthorhombic,-2.95,0.207,0.001,12.738,0.0,5.473,5.996,7.763,90,90,90,3.647
SmNiO3,Sm,Ni,orthorhombic,-2.356,-0.009000000000000001,0.2,10.909,0.0,5.28,5.477,7.544,90,90,90,1.31
SmNpO3,Sm,Np,cubic,-2.694,0.897,0.791,17.25,0.0,4.418,4.418,4.418,90,90,90,3.32
SmOsO3,Sm,Os,cubic,-1.788,0.618,0.003,12.354000000000001,0.0,3.953,3.953,3.953,90,90,90,0.674
SmPaO3,Sm,Pa,cubic,-2.48,0.765,0.308,17.873,0.0,4.471,4.471,4.471,90,90,90,3.036
SmPdO3,Sm,Pd,orthorhombic,-2.166,-0.055999999999999994,0.002,12.389000000000001,0.0,5.466,5.931,7.642,90,90,90,0.34700000000000003
SmPmO3,Sm,Pm,cubic,-2.7110000000000003,0.978,0,17.265,1.193,4.42,4.42,4.42,90,90,90,3.17
SmPrO3,Sm,Pr,cubic,-2.54,1.099,0,18.21,0.993,4.499,4.499,4.499,90,90,90,2.5660000000000003
SmPtO3,Sm,Pt,cubic,-1.659,0.539,0,13.082,0.0,4.029,4.029,4.029,90,90,90,-0.08199999999999999
SmPuO3,Sm,Pu,cubic,-2.735,0.932,0.928,16.641,0.0,4.366,4.366,4.366,90,90,90,2.548
SmRbO3,Sm,Rb,orthorhombic,-1.9509999999999998,0.469,0.4,20.346,0.0,6.107,6.17,10.798,90,90,90,-3.016
SmReO3,Sm,Re,cubic,-2.001,0.6859999999999999,0.165,12.43,0.0,3.961,3.961,3.961,90,90,90,0.946
SmRhO3,Sm,Rh,orthorhombic,-2.37,-0.053,0,11.987,0.7829999999999999,5.337,5.818,7.72,90,90,90,0.38
SmRuO3,Sm,Ru,orthorhombic,-2.371,0.049,0.199,11.958,0.0,5.295,5.864,7.702,90,90,90,1.228
SmSbO3,Sm,Sb,cubic,-1.855,0.86,0,15.065999999999999,0.0,4.223,4.223,4.223,90,90,90,1.5859999999999999
SmScO3,Sm,Sc,orthorhombic,-3.76,-0.006,0,12.664000000000001,4.4910000000000005,5.511,5.778,7.954,90,90,90,5.249
SmSiO3,Sm,Si,cubic,-2.675,0.5579999999999999,0,10.394,0.0,3.732,3.732,3.732,90,90,90,4.676
Sm2O3,Sm,Sm,cubic,-2.766,0.935,0,16.964000000000002,1.391,4.394,4.394,4.394,90,90,90,0.92
SmSnO3,Sm,Sn,cubic,-2.114,0.6940000000000001,0,14.015,0.0,4.123,4.123,4.123,90,90,90,2.5180000000000002
SmSrO3,Sm,Sr,orthorhombic,-2.83,0.257,0.11,17.107,0.0,5.949,5.959,9.652,90,90,90,-2.965
SmTaO3,Sm,Ta,cubic,-2.778,0.505,0.002,12.940999999999999,0.0,4.015,4.015,4.015,90,90,90,3.702
SmTbO3,Sm,Tb,cubic,-2.842,0.789,0,15.898,1.608,4.3,4.3,4.3,90,90,90,2.1719999999999997
SmTcO3,Sm,Tc,orthorhombic,-2.497,0.11800000000000001,0.389,12.16,0.0,5.34,5.902,7.716,90,90,90,1.831
SmTeO3,Sm,Te,cubic,-1.5419999999999998,0.955,0,15.305,0.0,4.246,4.246,4.246,90,90,90,1.216
SmThO3,Sm,Th,cubic,-2.877,0.899,0.084,18.905,0.0,4.555,4.555,4.555,90,90,90,2.673
SmTiO3,Sm,Ti,orthorhombic,-3.4210000000000003,-0.009000000000000001,0.2,11.905999999999999,0.0,5.398,5.7,7.738,90,90,90,5.05
SmTlO3,Sm,Tl,orthorhombic,-2.247,0.07200000000000001,0,14.526,1.2570000000000001,5.684,6.043,8.458,90,90,90,0.884
SmTmO3,Sm,Tm,cubic,-3.181,0.635,0,14.864,1.999,4.204,4.204,4.204,90,90,90,4.65
SmUO3,Sm,U,cubic,-2.301,1.2690000000000001,0.581,22.750999999999998,0.0,4.845,4.845,4.845,90,90,90,-1.117
SmVO3,Sm,V,orthorhombic,-3.2230000000000003,-0.057,0.4,11.864,1.105,5.398,5.695,7.718,90,90,90,4.238
SmWO3,Sm,W,cubic,-2.296,0.534,0.003,12.562000000000001,0.0,3.975,3.975,3.975,90,90,90,1.933
SmYO3,Sm,Y,cubic,-3.003,0.752,0,15.62,1.744,4.275,4.275,4.275,90,90,90,2.084
SmYbO3,Sm,Yb,cubic,-2.5,0.754,-0.158,13.968,0.0,4.118,4.118,4.118,90,90,90,-1.411
SmZnO3,Sm,Zn,orthorhombic,-2.4019999999999997,0.10800000000000001,0,11.700999999999999,0.0,5.327,5.784,7.595,90,90,90,0.146
SmZrO3,Sm,Zr,orthorhombic,-3.353,0.157,0.051,13.292,0.0,5.599,6.132,7.743,90,90,90,4.476
SnAcO3,Sn,Ac,cubic,-1.676,1.0070000000000001,0.061,19.752,0.0,4.622,4.622,4.622,90,90,90,-3.1510000000000002
SnAgO3,Sn,Ag,cubic,-0.34299999999999997,0.935,-,13.232999999999999,0.0,4.045,4.045,4.045,90,90,90,-2.457
SnAlO3,Sn,Al,orthorhombic,-2.269,0.257,-,10.344000000000001,0.0,5.201,5.364,7.416,90,90,90,1.659
SnAsO3,Sn,As,tetragonal,-1.321,0.33299999999999996,-,13.489,0.0,3.867,3.867,4.51,90,90,90,1.871
SnAuO3,Sn,Au,cubic,-0.361,0.905,-,13.690999999999999,0.0,4.091,4.091,4.091,90,90,90,-0.385
SnBO3,Sn,B,cubic,-1.092,1.125,-,8.323,0.0,3.465,3.465,3.465,90,90,90,1.685
SnBaO3,Sn,Ba,orthorhombic,-2.182,0.26,-,18.505,1.594,5.752,5.877,10.949,90,90,90,-6.742999999999999
SnBeO3,Sn,Be,cubic,-1.421,0.937,-,8.651,0.0,3.51,3.51,3.51,90,90,90,-2.775
SnBiO3,Sn,Bi,cubic,-1.046,0.64,-,16.076,0.0,4.316,4.316,4.316,90,90,90,1.0659999999999998
SnCdO3,Sn,Cd,cubic,-0.502,1.203,-,14.052,0.0,4.126,4.126,4.126,90,90,90,-4.446000000000001
SnCeO3,Sn,Ce,cubic,-1.64,1.013,-0.2,18.499000000000002,0.0,4.522,4.522,4.522,90,90,90,-3.6180000000000003
SnCrO3,Sn,Cr,orthorhombic,-1.939,0.195,0.623,11.276,0.0,5.295,5.543,7.684,90,90,90,1.68
SnCsO3,Sn,Cs,orthorhombic,-1.3619999999999999,0.324,-,20.745,0.22,5.965,6.918,10.053,90,90,90,-1.696
SnCuO3,Sn,Cu,cubic,-0.7440000000000001,0.7509999999999999,-,10.708,0.0,3.769,3.769,3.769,90,90,90,-2.239
SnDyO3,Sn,Dy,cubic,-1.96,0.893,-0.201,16.116,0.0,4.319,4.319,4.319,90,90,90,-2.247
SnErO3,Sn,Er,cubic,-2.012,0.851,-0.198,15.719000000000001,0.0,4.283,4.283,4.283,90,90,90,-1.922
SnEuO3,Sn,Eu,orthorhombic,-2.3890000000000002,0.312,0,14.788,0.88,5.707,5.783,8.961,90,90,90,-5.394
SnFeO3,Sn,Fe,rhombohedral,-1.496,0.284,0.846,11.389000000000001,0.0,5.396,5.396,5.396,61.1,61.1,61.1,0.792
SnGaO3,Sn,Ga,cubic,-1.374,0.57,-,11.282,0.0,3.835,3.835,3.835,90,90,90,0.23600000000000002
SnGdO3,Sn,Gd,cubic,-1.899,0.94,-0.195,16.51,0.0,4.354,4.354,4.354,90,90,90,-2.574
SnGeO3,Sn,Ge,orthorhombic,-1.495,0.27399999999999997,-,11.390999999999998,0.0,5.399,5.418,7.788,90,90,90,3.69
SnHfO3,Sn,Hf,orthorhombic,-2.783,0.135,0,13.857000000000001,2.398,5.797,5.821,8.214,90,90,90,5.278
SnHgO3,Sn,Hg,cubic,-0.251,1.103,-,14.613,0.0,4.181,4.181,4.181,90,90,90,-3.522
SnHoO3,Sn,Ho,cubic,-1.972,0.885,-0.008,15.913,0.0,4.301,4.301,4.301,90,90,90,-2.231
SnInO3,Sn,In,cubic,-1.037,0.779,-,14.207,0.0,4.142,4.142,4.142,90,90,90,-1.4269999999999998
SnIrO3,Sn,Ir,cubic,-0.815,0.677,0.001,12.552999999999999,0.0,3.974,3.974,3.974,90,90,90,1.392
SnKO3,Sn,K,orthorhombic,-1.3980000000000001,0.336,-,17.448,0.0,5.641,6.399,9.666,90,90,90,-9.86
SnLaO3,Sn,La,cubic,-1.78,1.044,0.001,18.121,0.0,4.491,4.491,4.491,90,90,90,-3.04
SnLiO3,Sn,Li,cubic,-0.725,1.138,-,9.356,0.0,3.603,3.603,3.603,90,90,90,-5.162000000000001
SnLuO3,Sn,Lu,cubic,-2.093,0.782,-0.199,15.152999999999999,0.0,4.231,4.231,4.231,90,90,90,-0.995
SnMgO3,Sn,Mg,cubic,-1.324,1.0270000000000001,-,11.245,0.0,3.831,3.831,3.831,90,90,90,-4.667
SnMnO3,Sn,Mn,cubic,-1.495,0.532,0.621,11.370999999999999,0.0,3.845,3.845,3.845,90,90,90,0.727
SnMoO3,Sn,Mo,orthorhombic,-1.681,0.22699999999999998,0.003,12.669,0.0,5.584,5.658,8.02,90,90,90,4.32
SnNaO3,Sn,Na,orthorhombic,-1.4269999999999998,0.374,-,13.218,0.0,5.66,5.971,7.823,90,90,90,-8.849
SnNbO3,Sn,Nb,tetragonal,-2.11,0.20600000000000002,0,13.523,0.0,4.05,4.086,4.086,90,90,90,4.737
SnNdO3,Sn,Nd,cubic,-1.732,1.046,0,17.801,0.0,4.465,4.465,4.465,90,90,90,-3.327
SnNiO3,Sn,Ni,cubic,-0.885,0.784,0.221,10.505999999999998,0.0,3.745,3.745,3.745,90,90,90,-2.2680000000000002
SnNpO3,Sn,Np,cubic,-2.186,0.655,0.591,16.918,0.0,4.39,4.39,4.39,90,90,90,1.8769999999999998
SnOsO3,Sn,Os,cubic,-0.976,0.545,0.206,12.482000000000001,0.0,3.967,3.967,3.967,90,90,90,2.825
SnPaO3,Sn,Pa,orthorhombic,-2.384,0.09,0.2,16.177,2.036,5.929,6.329,8.621,90,90,90,3.83
SnPbO3,Sn,Pb,tetragonal,-1.1340000000000001,0.579,-,15.282,0.0,3.886,3.886,5.059,90,90,90,1.229
SnPdO3,Sn,Pd,cubic,-0.6579999999999999,0.774,-,12.636,0.0,3.983,3.983,3.983,90,90,90,0.36
SnPmO3,Sn,Pm,cubic,-1.778,0.953,-0.004,17.465,0.0,4.437,4.437,4.437,90,90,90,-3.1719999999999997
SnPrO3,Sn,Pr,cubic,-1.693,1.0659999999999998,-0.199,18.05,0.0,4.486,4.486,4.486,90,90,90,-3.4339999999999997
SnPtO3,Sn,Pt,cubic,-0.644,0.764,0.002,12.977,0.0,4.018,4.018,4.018,90,90,90,0.447
SnRbO3,Sn,Rb,orthorhombic,-1.3719999999999999,0.315,-,18.762999999999998,0.0,5.698,6.613,9.959,90,90,90,-9.375
SnReO3,Sn,Re,orthorhombic,-1.345,0.34,0,12.633,0.0,5.52,5.571,8.217,90,90,90,3.7710000000000004
SnRhO3,Sn,Rh,cubic,-0.88,0.604,0.002,12.323,0.0,3.95,3.95,3.95,90,90,90,0.885
SnRuO3,Sn,Ru,orthorhombic,-1.225,0.327,0.002,11.647,0.0,5.372,5.536,7.833,90,90,90,2.761
SnSbO3,Sn,Sb,tetragonal,-1.382,0.316,-,14.950999999999999,0.0,4.135,4.135,4.372,90,90,90,2.386
SnScO3,Sn,Sc,cubic,-2.122,0.675,-0.01,13.425,0.0,4.064,4.064,4.064,90,90,90,-0.585
SnSiO3,Sn,Si,tetragonal,-2.097,0.36200000000000004,-,11.247,0.865,3.477,3.477,4.652,90,90,90,5.029
SnSmO3,Sn,Sm,cubic,-1.8159999999999998,0.992,-0.2,17.249000000000002,0.0,4.418,4.418,4.418,90,90,90,-2.9330000000000003
Sn2O3,Sn,Sn,orthorhombic,-1.6,0.187,-,13.411,1.158,5.682,5.776,8.173,90,90,90,3.443
SnSrO3,Sn,Sr,orthorhombic,-2.2230000000000003,0.273,-,16.198,1.1740000000000002,5.743,5.798,9.73,90,90,90,-6.916
SnTaO3,Sn,Ta,tetragonal,-2.2230000000000003,0.308,0,13.398,0.0,4.045,4.069,4.069,90,90,90,5.007
SnTbO3,Sn,Tb,cubic,-1.8,0.9159999999999999,-0.196,16.311,0.0,4.337,4.337,4.337,90,90,90,-2.406
SnTcO3,Sn,Tc,orthorhombic,-1.4040000000000001,0.278,0.352,12.362,0.0,5.541,5.648,7.9,90,90,90,3.489
SnTeO3,Sn,Te,cubic,-1.032,0.53,-,15.193,0.0,4.235,4.235,4.235,90,90,90,2.517
SnThO3,Sn,Th,cubic,-2.51,0.647,0,19.05,0.645,4.567,4.567,4.567,90,90,90,3.095
SnTiO3,Sn,Ti,tetragonal,-2.488,0.078,0,12.534,0.7440000000000001,3.867,3.867,4.192,90,90,90,4.657
SnTlO3,Sn,Tl,orthorhombic,-1.169,0.35700000000000004,-,14.367,0.0,5.694,5.824,8.665,90,90,90,-2.983
SnTmO3,Sn,Tm,cubic,-2.049,0.825,-0.198,15.495,0.0,4.263,4.263,4.263,90,90,90,-1.145
SnUO3,Sn,U,cubic,-2.396,0.511,0.274,16.719,0.0,4.372,4.372,4.372,90,90,90,3.267
SnVO3,Sn,V,orthorhombic,-2.01,0.198,0.351,11.57,0.0,5.411,5.574,7.672,90,90,90,3.1180000000000003
SnWO3,Sn,W,cubic,-1.6780000000000002,0.27899999999999997,0,12.775,0.0,3.997,3.997,3.997,90,90,90,4.5169999999999995
SnYO3,Sn,Y,cubic,-1.911,0.922,0,16.31,0.0,4.336,4.336,4.336,90,90,90,-2.492
SnYbO3,Sn,Yb,orthorhombic,-2.424,0.262,-,13.312999999999999,0.7879999999999999,5.62,5.644,8.395,90,90,90,-5.343
SnZnO3,Sn,Zn,cubic,-0.8540000000000001,0.977,-,11.387,0.0,3.847,3.847,3.847,90,90,90,-3.8110000000000004
SnZrO3,Sn,Zr,tetragonal,-2.627,0.16699999999999998,0,14.31,1.659,4.051,4.051,4.359,90,90,90,4.877
SrAcO3,Sr,Ac,orthorhombic,-2.8739999999999997,0.152,0.2,18.136,0.0,6.232,6.48,8.981,90,90,90,-0.006999999999999999
SrAgO3,Sr,Ag,orthorhombic,-1.31,0.092,-,13.387,0.0,5.703,5.839,8.04,90,90,90,-0.289
SrAlO3,Sr,Al,orthorhombic,-2.87,0.09,-,10.977,0.0,5.374,5.374,7.603,90,90,90,0.6409999999999999
SrAsO3,Sr,As,tetragonal,-2.144,0.21,-,12.67,0.0,3.858,3.858,4.256,90,90,90,2.375
SrAuO3,Sr,Au,orthorhombic,-1.376,0.192,-,13.581,0.0,5.783,5.937,7.91,90,90,90,0.04
SrBO3,Sr,B,cubic,-1.702,1.046,-,9.085,0.0,3.568,3.568,3.568,90,90,90,-1.392
SrBaO3,Sr,Ba,cubic,-1.631,0.818,-,19.726,0.0,4.62,4.62,4.62,90,90,90,-1.445
SrBeO3,Sr,Be,tetragonal,-2.0380000000000003,0.444,-,10.793,0.0,3.36,3.36,4.78,90,90,90,-1.601
SrBiO3,Sr,Bi,orthorhombic,-2.088,0.012,-,15.532,0.0,5.951,6.133,8.511,90,90,90,1.6159999999999999
SrCaO3,Sr,Ca,cubic,-1.973,0.6,-,15.835999999999999,0.0,4.294,4.294,4.294,90,90,90,-1.703
SrCdO3,Sr,Cd,orthorhombic,-1.506,0.284,-,14.210999999999999,0.0,5.82,5.978,8.17,90,90,90,-0.8640000000000001
SrCeO3,Sr,Ce,orthorhombic,-2.806,0.191,0.2,17.32,0.0,6.143,6.377,8.842,90,90,90,-0.685
SrCoO3,Sr,Co,orthorhombic,-1.9040000000000001,0.013999999999999999,0.629,11.425999999999998,0.0,5.398,5.403,7.835,90,90,90,0.687
SrCrO3,Sr,Cr,orthorhombic,-2.5610000000000004,0.040999999999999995,0.4,11.412,0.777,5.457,5.457,7.664,90,90,90,1.791
SrCsO3,Sr,Cs,cubic,-0.835,0.985,-,18.43,0.0,4.517,4.517,4.517,90,90,90,-1.097
SrCuO3,Sr,Cu,orthorhombic,-1.547,0.071,-,11.296,0.0,5.424,5.435,7.662,90,90,90,-0.061
SrDyO3,Sr,Dy,orthorhombic,-3.0039999999999996,0.158,0.2,15.533,0.0,5.974,6.145,8.462,90,90,90,-0.44799999999999995
SrErO3,Sr,Er,orthorhombic,-3.036,0.151,0.2,15.222000000000001,0.0,5.936,6.101,8.406,90,90,90,-0.37
SrEuO3,Sr,Eu,cubic,-2.133,0.521,0.037,15.52,0.0,4.265,4.265,4.265,90,90,90,-1.035
SrFeO3,Sr,Fe,orthorhombic,-2.188,-0.015,0.808,11.449000000000002,0.0,5.447,5.454,7.707,90,90,90,1.3780000000000001
SrGaO3,Sr,Ga,cubic,-2.215,0.16899999999999998,-,12.022,0.0,3.917,3.917,3.917,90,90,90,-0.172
SrGdO3,Sr,Gd,orthorhombic,-2.967,0.166,0.2,15.863,0.0,6.005,6.188,8.537,90,90,90,-0.521
SrGeO3,Sr,Ge,cubic,-2.434,0.14300000000000002,-,11.292,0.308,3.836,3.836,3.836,90,90,90,4.0969999999999995
SrHfO3,Sr,Hf,orthorhombic,-3.653,0.0,0,13.589,4.43,5.751,5.792,8.159,90,90,90,6.856
SrHgO3,Sr,Hg,orthorhombic,-1.314,0.196,-,15.005,0.0,5.934,6.607,7.655,90,90,90,-0.562
SrHoO3,Sr,Ho,orthorhombic,-3.02,0.153,0.2,15.378,0.0,5.952,6.124,8.438,90,90,90,-0.41
SrInO3,Sr,In,orthorhombic,-2.013,0.182,-,14.22,0.0,5.836,5.912,8.242,90,90,90,-0.561
SrIrO3,Sr,Ir,orthorhombic,-1.838,0.025,0.048,12.424000000000001,0.0,5.55,5.674,7.891,90,90,90,1.995
SrKO3,Sr,K,cubic,-0.607,1.22,-,16.165,0.0,4.324,4.324,4.324,90,90,90,-3.24
SrLaO3,Sr,La,orthorhombic,-2.923,0.17,0.2,17.059,0.0,6.108,6.348,8.798,90,90,90,-0.358
SrLiO3,Sr,Li,cubic,-1.4080000000000001,0.536,-,10.995999999999999,0.0,3.802,3.802,3.802,90,90,90,-1.469
SrLuO3,Sr,Lu,orthorhombic,-3.083,0.135,0.2,14.745999999999999,0.0,5.862,6.03,8.343,90,90,90,-0.142
SrMgO3,Sr,Mg,orthorhombic,-2.1319999999999997,0.342,-,12.394,0.0,5.219,5.949,7.984,90,90,90,-0.975
SrMnO3,Sr,Mn,orthorhombic,-2.3680000000000003,0.040999999999999995,0.6,11.38,0.0,5.425,5.446,7.703,90,90,90,1.412
SrMoO3,Sr,Mo,orthorhombic,-2.611,0.026000000000000002,0.001,12.645,0.0,5.632,5.635,7.968,90,90,90,5.296
SrNaO3,Sr,Na,cubic,-0.9940000000000001,0.835,-,13.882,0.0,4.11,4.11,4.11,90,90,90,-2.302
SrNbO3,Sr,Nb,orthorhombic,-3.022,-0.011000000000000001,0,13.267999999999999,0.0,5.71,5.732,8.108,90,90,90,5.907
SrNdO3,Sr,Nd,orthorhombic,-2.865,0.18600000000000003,0.2,16.743,0.0,6.095,6.303,8.717,90,90,90,-0.6709999999999999
SrNiO3,Sr,Ni,orthorhombic,-1.665,0.127,0.001,11.363,0.0,5.434,5.442,7.686,90,90,90,0.19
SrOsO3,Sr,Os,orthorhombic,-1.9409999999999998,-0.067,0.196,12.35,0.0,5.588,5.598,7.897,90,90,90,3.325
SrPaO3,Sr,Pa,orthorhombic,-3.18,-0.14400000000000002,0.2,16.648,2.529,6.087,6.268,8.727,90,90,90,5.517
SrPbO3,Sr,Pb,orthorhombic,-1.995,-0.043,-,14.902000000000001,1.042,5.881,6.041,8.389,90,90,90,1.78
SrPdO3,Sr,Pd,orthorhombic,-1.636,-0.057999999999999996,-,12.585999999999999,0.299,5.588,5.683,7.927,90,90,90,0.177
SrPmO3,Sr,Pm,orthorhombic,-2.897,0.17800000000000002,0.2,16.476,0.0,6.066,6.266,8.67,90,90,90,-0.597
SrPrO3,Sr,Pr,orthorhombic,-2.838,0.187,0.2,16.993,0.0,6.11,6.342,8.771,90,90,90,-0.6729999999999999
SrPtO3,Sr,Pt,orthorhombic,-1.7080000000000002,-0.013000000000000001,0,12.705,0.616,5.595,5.719,7.942,90,90,90,0.713
SrPuO3,Sr,Pu,orthorhombic,-3.33,-0.179,0.8,15.748,1.949,5.979,6.147,8.57,90,90,90,3.783
SrRbO3,Sr,Rb,cubic,-0.615,1.199,-,16.385,0.0,4.343,4.343,4.343,90,90,90,-2.49
SrReO3,Sr,Re,rhombohedral,-2.2319999999999998,0.11900000000000001,0.006,12.456,0.0,5.59,5.59,5.59,60.4,60.4,60.4,4.409
SrRhO3,Sr,Rh,orthorhombic,-1.8559999999999999,-0.006,0.2,12.33,0.0,5.553,5.635,7.882,90,90,90,1.774
SrRuO3,Sr,Ru,orthorhombic,-2.024,-0.013000000000000001,0.396,12.293,0.0,5.574,5.586,7.896,90,90,90,3.136
SrSbO3,Sr,Sb,orthorhombic,-2.2680000000000002,0.078,-,14.308,0.0,5.825,5.923,8.295,90,90,90,2.819
SrScO3,Sr,Sc,orthorhombic,-3.05,0.091,0.2,13.599,0.0,5.743,5.813,8.148,90,90,90,-0.08800000000000001
SrSiO3,Sr,Si,tetragonal,-2.989,0.287,-,11.198,2.148,3.465,3.465,4.662,90,90,90,6.066
SrSmO3,Sr,Sm,orthorhombic,-2.912,0.175,0.2,16.302,0.0,6.051,6.246,8.627,90,90,90,-0.583
SrSnO3,Sr,Sn,orthorhombic,-2.495,-0.042,-,13.439,2.116,5.733,5.766,8.131,90,90,90,3.937
Sr2O3,Sr,Sr,cubic,-1.7380000000000002,0.735,-,17.697,0.0,4.456,4.456,4.456,90,90,90,-1.979
SrTaO3,Sr,Ta,orthorhombic,-3.1210000000000004,0.044000000000000004,0,13.11,0.0,5.691,5.703,8.078,90,90,90,6.1610000000000005
SrTbO3,Sr,Tb,orthorhombic,-2.8539999999999996,0.163,0.2,15.685,0.0,5.979,6.167,8.507,90,90,90,-0.493
SrTcO3,Sr,Tc,orthorhombic,-2.295,-0.09699999999999999,0.254,12.379000000000001,0.0,5.587,5.596,7.918,90,90,90,4.148
SrTeO3,Sr,Te,rhombohedral,-2.0180000000000002,0.193,-,14.970999999999998,0.441,5.926,5.926,5.926,60.8,60.8,60.8,3.1519999999999997
SrThO3,Sr,Th,orthorhombic,-3.6489999999999996,0.071,0,17.178,4.252,6.145,6.331,8.831,90,90,90,5.721
SrTiO3,Sr,Ti,rhombohedral,-3.3539999999999996,-0.046,0,12.003,2.009,5.533,5.533,5.533,60.1,60.1,60.1,5.504
SrTlO3,Sr,Tl,orthorhombic,-1.58,0.163,-,15.014000000000001,0.0,5.874,6.131,8.338,90,90,90,-0.67
SrTmO3,Sr,Tm,orthorhombic,-3.0589999999999997,0.146,0.2,15.040999999999999,0.0,5.912,6.079,8.37,90,90,90,-0.29600000000000004
SrUO3,Sr,U,orthorhombic,-3.487,-0.018000000000000002,0.4,16.258,2.645,6.026,6.228,8.664,90,90,90,5.193
SrVO3,Sr,V,orthorhombic,-2.8819999999999997,-0.002,0.2,11.693,0.0,5.437,5.441,7.904,90,90,90,3.786
SrWO3,Sr,W,cubic,-2.596,0.149,0,12.735999999999999,0.0,3.993,3.993,3.993,90,90,90,5.437
SrYO3,Sr,Y,orthorhombic,-2.9789999999999996,0.161,0.2,15.652999999999999,0.0,6.007,6.188,8.423,90,90,90,-0.5760000000000001
SrYbO3,Sr,Yb,orthorhombic,-2.491,0.20800000000000002,-,14.918,2.625,6.401,6.586,7.077,90,90,90,-0.9840000000000001
SrZnO3,Sr,Zn,orthorhombic,-1.706,0.25,-,12.088,0.0,5.545,5.55,7.855,90,90,90,-0.611
TaAcO3,Ta,Ac,rhombohedral,-2.889,0.21600000000000003,0,17.361,1.2229999999999999,6.155,6.155,6.155,62.4,62.4,62.4,-6.053
TaAgO3,Ta,Ag,orthorhombic,-2.019,0.24600000000000002,0,14.157,1.609,5.492,5.917,8.713,90,90,90,-11.587
TaAlO3,Ta,Al,cubic,-1.936,1.036,0.334,9.578,0.0,3.631,3.631,3.631,90,90,90,3.9610000000000003
TaAsO3,Ta,As,cubic,-0.38299999999999995,2.049,0.513,12.017000000000001,0.0,3.917,3.917,3.917,90,90,90,-0.797
TaAuO3,Ta,Au,cubic,0.335,2.573,0.42,13.367,0.0,4.058,4.058,4.058,90,90,90,-8.366
TaBO3,Ta,B,cubic,-1.101,1.649,0.086,7.765,0.0,3.386,3.386,3.386,90,90,90,1.296
TaBaO3,Ta,Ba,orthorhombic,-2.7910000000000004,0.359,-0.001,17.807000000000002,0.304,5.529,6.608,9.748,90,90,90,-3.556
TaBeO3,Ta,Be,cubic,-1.946,0.993,0.001,7.821000000000001,0.0,3.394,3.394,3.394,90,90,90,3.022
TaBiO3,Ta,Bi,cubic,-0.046,2.423,0.58,15.692,0.0,4.281,4.281,4.281,90,90,90,-5.978
TaCdO3,Ta,Cd,orthorhombic,-2.001,0.48,0,12.765999999999998,0.0,5.622,6.378,7.121,90,90,90,-12.014000000000001
TaCeO3,Ta,Ce,cubic,-0.711,2.478,0.396,18.308,0.0,4.507,4.507,4.507,90,90,90,-13.22
TaCoO3,Ta,Co,cubic,-0.878,1.6,-0.112,9.555,0.0,3.629,3.629,3.629,90,90,90,-0.41100000000000003
TaCrO3,Ta,Cr,orthorhombic,-2.33,0.332,0.599,10.669,0.0,5.225,6.038,6.765,90,90,90,-2.758
TaCuO3,Ta,Cu,orthorhombic,-2.181,0.21600000000000003,0,11.068,0.0,4.832,5.157,8.882,90,90,90,-1.882
TaDyO3,Ta,Dy,cubic,-1.295,2.033,0.399,15.203,0.0,4.236,4.236,4.236,90,90,90,-9.365
TaErO3,Ta,Er,cubic,-1.3980000000000001,1.944,0.399,14.694,0.0,4.188,4.188,4.188,90,90,90,-8.576
TaEuO3,Ta,Eu,orthorhombic,-2.955,0.39399999999999996,-0.002,13.999,0.0,5.6,6.202,8.061,90,90,90,-16.488
TaFeO3,Ta,Fe,cubic,-0.862,1.6980000000000002,1.261,10.777000000000001,0.0,3.777,3.777,3.777,90,90,90,-4.452
TaGaO3,Ta,Ga,orthorhombic,-2.109,0.43200000000000005,0,13.193,0.0,6.13,6.396,6.729,90,90,90,1.4240000000000002
TaGdO3,Ta,Gd,cubic,-1.179,2.13,0.398,15.797,0.0,4.291,4.291,4.291,90,90,90,-10.218
TaGeO3,Ta,Ge,cubic,-0.758,1.7169999999999999,0.533,10.96,0.0,3.798,3.798,3.798,90,90,90,0.27
TaHfO3,Ta,Hf,cubic,-1.814,1.3659999999999999,0.594,13.342,0.0,4.056,4.056,4.056,90,90,90,-3.616
TaHgO3,Ta,Hg,orthorhombic,-1.903,0.379,0,16.518,0.0,5.517,6.317,9.48,90,90,90,-8.894
TaHoO3,Ta,Ho,cubic,-1.348,1.9909999999999999,0.399,14.927999999999999,0.0,4.21,4.21,4.21,90,90,90,-8.96
TaIrO3,Ta,Ir,cubic,-0.109,2.242,0.339,11.992,0.0,3.914,3.914,3.914,90,90,90,-7.068
TaKO3,Ta,K,orthorhombic,-2.6839999999999997,0.23600000000000002,0,17.643,3.635,5.769,5.851,10.454,90,90,90,-21.785
TaLaO3,Ta,La,cubic,-0.8390000000000001,2.464,0.397,17.927,0.0,4.475,4.475,4.475,90,90,90,-12.769
TaLiO3,Ta,Li,orthorhombic,-2.8280000000000003,0.138,0,9.486,2.991,4.748,5.105,7.828,90,90,90,-2.44
TaLuO3,Ta,Lu,cubic,-1.546,1.814,0.399,13.975999999999999,0.0,4.119,4.119,4.119,90,90,90,-7.371
TaMgO3,Ta,Mg,cubic,-1.5130000000000001,1.4809999999999999,0.073,9.856,0.0,3.666,3.666,3.666,90,90,90,-3.1039999999999996