formula,atom a,atom b,lowest distortion,e_form,e_hull,mu_b,vpa,gap pbe,a,b,c,alpha,beta,gamma,e_form oxygen
ErWO3,Er,W,cubic,-2.147,0.867,0,12.372,0.0,3.955,3.955,3.955,90,90,90,0.934
ErYO3,Er,Y,cubic,-2.821,1.031,0,15.395,1.4469999999999998,4.254,4.254,4.254,90,90,90,0.436
ErYbO3,Er,Yb,cubic,-2.33,1.022,-0.156,13.649000000000001,0.0,4.087,4.087,4.087,90,90,90,-2.1390000000000002
ErZnO3,Er,Zn,orthorhombic,-2.459,0.149,-0.002,11.089,0.0,5.21,5.741,7.416,90,90,90,-0.385
ErZrO3,Er,Zr,cubic,-2.91,0.6829999999999999,0,13.972999999999999,0.0,4.119,4.119,4.119,90,90,90,4.018
EuAcO3,Eu,Ac,cubic,-2.572,0.5760000000000001,0.073,19.427,0.0,4.597,4.597,4.597,90,90,90,-0.486
EuAgO3,Eu,Ag,orthorhombic,-1.517,-0.027000000000000003,0,12.617,0.0,5.538,5.81,7.843,90,90,90,-0.606
EuAlO3,Eu,Al,cubic,-3.105,-0.075,0.166,10.325,0.0,3.724,3.724,3.724,90,90,90,0.755
EuAsO3,Eu,As,tetragonal,-2.314,-0.081,0,12.16,0.0,3.81,3.81,4.188,90,90,90,2.4530000000000003
EuAuO3,Eu,Au,orthorhombic,-1.587,-0.057,0,12.794,0.0,5.61,5.931,7.69,90,90,90,-0.489
EuBO3,Eu,B,cubic,-2.082,0.846,0.187,8.35,0.0,3.469,3.469,3.469,90,90,90,-0.8220000000000001
EuBaO3,Eu,Ba,orthorhombic,-2.44,0.18899999999999997,0,17.65,2.094,6.58,6.659,8.056,90,90,90,-1.7619999999999998
EuBeO3,Eu,Be,cubic,-2.309,0.249,0.398,9.202,0.0,3.583,3.583,3.583,90,90,90,-0.922
EuBiO3,Eu,Bi,orthorhombic,-2.255,-0.106,0,14.761,0.0,5.807,6.071,8.373,90,90,90,1.429
EuCaO3,Eu,Ca,cubic,-2.0780000000000003,0.585,0.4,15.155,0.0,4.232,4.232,4.232,90,90,90,-1.855
EuCdO3,Eu,Cd,orthorhombic,-1.69,0.163,0,13.404000000000002,0.0,5.659,5.96,7.949,90,90,90,-1.123
EuCeO3,Eu,Ce,cubic,-2.557,0.562,0.2,18.15,0.0,4.494,4.494,4.494,90,90,90,-1.183
EuCoO3,Eu,Co,orthorhombic,-2.138,-0.038,0.6,10.583,0.0,5.258,5.313,7.577,90,90,90,1.59
EuCrO3,Eu,Cr,orthorhombic,-2.8,-0.051,0.4,10.802999999999999,0.605,5.334,5.352,7.569,90,90,90,2.113
EuCsO3,Eu,Cs,cubic,-0.846,1.155,0,17.852999999999998,0.0,4.469,4.469,4.469,90,90,90,-1.355
EuCuO3,Eu,Cu,orthorhombic,-1.7830000000000001,0.059000000000000004,-0.026,10.542,0.0,5.269,5.329,7.509,90,90,90,0.065
EuDyO3,Eu,Dy,orthorhombic,-3.173,0.11,0.198,14.724,0.0,5.866,6.064,8.278,90,90,90,-0.884
EuErO3,Eu,Er,orthorhombic,-3.2089999999999996,0.098,0.2,14.407,0.0,5.813,6.018,8.236,90,90,90,-0.805
Eu2O3,Eu,Eu,cubic,-2.199,0.519,0.011,14.814,0.0,4.2,4.2,4.2,90,90,90,-1.227
EuFeO3,Eu,Fe,orthorhombic,-2.417,-0.078,0.8,10.78,0.0,5.324,5.363,7.551,90,90,90,1.6669999999999998
EuGaO3,Eu,Ga,rhombohedral,-2.43,0.013000000000000001,0.199,11.255,0.0,5.329,5.329,5.329,62.3,62.3,62.3,-0.252
EuGdO3,Eu,Gd,orthorhombic,-3.1319999999999997,0.12300000000000001,0.199,15.06,0.0,5.913,6.098,8.353,90,90,90,-0.9540000000000001
EuGeO3,Eu,Ge,rhombohedral,-2.7039999999999997,-0.212,0,10.559000000000001,1.791,5.284,5.284,5.284,60.5,60.5,60.5,4.364
EuHfO3,Eu,Hf,orthorhombic,-3.844,-0.182,0,12.898,4.521,5.623,5.727,8.01,90,90,90,6.69
EuHgO3,Eu,Hg,orthorhombic,-1.496,0.045,-0.001,13.993,0.0,5.73,6.504,7.509,90,90,90,-0.919
EuHoO3,Eu,Ho,orthorhombic,-3.1919999999999997,0.10400000000000001,0.2,14.562999999999999,0.0,5.835,6.039,8.266,90,90,90,-0.853
EuInO3,Eu,In,orthorhombic,-2.217,0.085,0.2,13.472000000000001,0.0,5.687,5.96,7.949,90,90,90,-0.835
EuIrO3,Eu,Ir,orthorhombic,-2.097,-0.043,0.051,11.765999999999998,0.0,5.351,5.695,7.722,90,90,90,1.311
EuKO3,Eu,K,cubic,-0.6459999999999999,1.3619999999999999,-0.141,15.183,0.0,4.234,4.234,4.234,90,90,90,-4.333
EuLaO3,Eu,La,orthorhombic,-3.074,0.141,0.2,16.201,0.0,5.979,6.232,8.697,90,90,90,-0.8140000000000001
EuLiO3,Eu,Li,rhombohedral,-1.72,0.353,0.6,10.293,0.0,5.258,5.258,5.258,60.1,60.1,60.1,-0.787
EuLuO3,Eu,Lu,orthorhombic,-3.261,0.094,0.2,13.942,0.0,5.739,5.952,8.162,90,90,90,-0.626
EuMgO3,Eu,Mg,orthorhombic,-2.3569999999999998,0.19699999999999998,0.4,11.884,0.0,5.219,5.845,7.792,90,90,90,-0.701
EuMnO3,Eu,Mn,rhombohedral,-2.612,0.003,0.6,10.64,0.0,5.283,5.283,5.283,60.9,60.9,60.9,1.7409999999999999
EuMoO3,Eu,Mo,orthorhombic,-2.815,-0.10099999999999999,0.002,12.007,0.0,5.49,5.587,7.83,90,90,90,4.925
EuNaO3,Eu,Na,orthorhombic,-1.751,0.23399999999999999,0,12.024000000000001,0.0,5.995,6.293,6.374,90,90,90,-2.046
EuNbO3,Eu,Nb,orthorhombic,-3.2110000000000003,-0.053,0,12.602,0.0,5.571,5.681,7.963,90,90,90,5.532
EuNdO3,Eu,Nd,cubic,-2.6660000000000004,0.5670000000000001,0.2,17.198,0.0,4.414,4.414,4.414,90,90,90,-1.14
EuNiO3,Eu,Ni,orthorhombic,-1.895,0.0,0,10.519,0.0,5.28,5.287,7.537,90,90,90,0.409
EuNpO3,Eu,Np,orthorhombic,-3.5860000000000003,-0.001,0.6,15.202,2.489,5.882,6.106,8.465,90,90,90,3.634
EuOsO3,Eu,Os,orthorhombic,-2.199,-0.14300000000000002,0.179,11.695,0.0,5.377,5.624,7.734,90,90,90,2.511
EuPaO3,Eu,Pa,orthorhombic,-3.341,-0.12300000000000001,0.2,15.877,4.657,5.962,6.2,8.591,90,90,90,5.807
EuPbO3,Eu,Pb,orthorhombic,-2.177,-0.15,0,14.095999999999998,1.234,5.726,5.984,8.227,90,90,90,1.4769999999999999
EuPdO3,Eu,Pd,orthorhombic,-1.8840000000000001,-0.09,0,11.872,0.45399999999999996,5.416,5.659,7.747,90,90,90,0.085
EuPmO3,Eu,Pm,orthorhombic,-3.057,0.14,0.201,15.65,0.0,5.961,6.169,8.513,90,90,90,-1.079
EuPrO3,Eu,Pr,cubic,-2.616,0.53,0.2,17.636,0.0,4.451,4.451,4.451,90,90,90,-1.1420000000000001
EuPtO3,Eu,Pt,orthorhombic,-1.964,-0.071,0,12.001,0.623,5.411,5.712,7.765,90,90,90,0.039
EuPuO3,Eu,Pu,orthorhombic,-3.502,-0.187,0.8,14.940999999999999,2.0180000000000002,5.846,6.071,8.42,90,90,90,3.583
EuRbO3,Eu,Rb,cubic,-0.6559999999999999,1.339,0,15.683,0.0,4.28,4.28,4.28,90,90,90,-2.952
EuReO3,Eu,Re,orthorhombic,-2.45,-0.067,-0.002,11.845,0.0,5.458,5.58,7.778,90,90,90,3.283
EuRhO3,Eu,Rh,orthorhombic,-2.109,-0.128,0.194,11.66,0.0,5.371,5.626,7.717,90,90,90,1.403
EuRuO3,Eu,Ru,orthorhombic,-2.26,-0.11199999999999999,0.383,11.669,0.0,5.413,5.571,7.738,90,90,90,2.747
EuSbO3,Eu,Sb,orthorhombic,-2.434,-0.04,0,13.617,0.0,5.676,5.893,8.142,90,90,90,2.693
EuScO3,Eu,Sc,orthorhombic,-3.238,0.03,0.2,12.808,0.0,5.567,5.786,7.954,90,90,90,-0.446
EuSiO3,Eu,Si,cubic,-3.283,0.001,0,9.277000000000001,3.989,3.593,3.593,3.593,90,90,90,6.452999999999999
EuSmO3,Eu,Sm,orthorhombic,-3.075,0.134,0.2,15.5,0.0,5.955,6.169,8.438,90,90,90,-1.08
EuSnO3,Eu,Sn,orthorhombic,-2.701,-0.171,0,12.755,2.5780000000000003,5.587,5.716,7.989,90,90,90,3.6860000000000004
EuSrO3,Eu,Sr,cubic,-1.754,0.9009999999999999,-0.081,16.601,0.0,4.362,4.362,4.362,90,90,90,-2.838
EuTaO3,Eu,Ta,orthorhombic,-3.3110000000000004,0.037000000000000005,0,12.47,0.0,5.561,5.643,7.948,90,90,90,5.7620000000000005
EuTbO3,Eu,Tb,orthorhombic,-3.023,0.11599999999999999,0.199,14.899000000000001,0.0,5.907,6.1,8.269,90,90,90,-0.919
EuTcO3,Eu,Tc,orthorhombic,-2.529,-0.15,0.268,11.720999999999998,0.0,5.446,5.552,7.754,90,90,90,3.8339999999999996
EuTeO3,Eu,Te,orthorhombic,-2.197,0.146,0,14.142999999999999,0.215,5.718,6.001,8.244,90,90,90,2.866
EuThO3,Eu,Th,orthorhombic,-3.803,0.09699999999999999,0,16.323,4.512,6.017,6.239,8.697,90,90,90,5.479
EuTiO3,Eu,Ti,orthorhombic,-3.5580000000000003,-0.254,0,11.432,2.1919999999999997,5.443,5.458,7.697,90,90,90,5.431
EuTlO3,Eu,Tl,orthorhombic,-1.756,0.08800000000000001,0.047,14.165999999999999,0.0,5.709,6.093,8.144,90,90,90,-0.8740000000000001
EuTmO3,Eu,Tm,orthorhombic,-3.234,0.09,0.2,14.242,0.0,5.803,6,8.181,90,90,90,-0.721
EuUO3,Eu,U,cubic,-3.1430000000000002,0.507,0.382,17.029,0.0,4.399,4.399,4.399,90,90,90,4.988
EuVO3,Eu,V,orthorhombic,-3.1,-0.09300000000000001,0.2,11.065999999999999,0.0,5.361,5.369,7.689,90,90,90,4.117
EuWO3,Eu,W,orthorhombic,-2.7969999999999997,0.11599999999999999,0,12.094000000000001,0.0,5.503,5.595,7.854,90,90,90,4.772
EuYO3,Eu,Y,orthorhombic,-3.153,0.109,0.2,14.773,0.0,5.931,6.134,8.122,90,90,90,-1.052
EuYbO3,Eu,Yb,cubic,-2.275,0.48700000000000004,0.083,13.857000000000001,0.0,4.107,4.107,4.107,90,90,90,-1.411
EuZnO3,Eu,Zn,rhombohedral,-1.909,0.109,-0.011,11.16,0.0,5.295,5.295,5.295,62.8,62.8,62.8,-0.55
EuZrO3,Eu,Zr,orthorhombic,-3.6910000000000003,0.0,0,13.299000000000001,4.1339999999999995,5.661,5.809,8.087,90,90,90,6.2010000000000005
FeAgO3,Fe,Ag,orthorhombic,-0.778,0.18,0.861,11.314,0.0,5.105,5.26,8.427,90,90,90,-3.2939999999999996
FeAlO3,Fe,Al,cubic,-1.806,0.652,0.997,9.452,0.0,3.615,3.615,3.615,90,90,90,-1.6380000000000001
FeAsO3,Fe,As,cubic,-0.8420000000000001,0.71,0.724,10.618,0.0,3.758,3.758,3.758,90,90,90,0.012
FeAuO3,Fe,Au,cubic,0.152,1.117,0.83,12.796,0.0,4,4,4,90,90,90,-3.04
FeBO3,Fe,B,cubic,-1.021,1.146,0.999,7.332000000000001,0.0,3.322,3.322,3.322,90,90,90,-1.3419999999999999
FeBeO3,Fe,Be,cubic,0.174,2.186,0.718,16.116,0.0,4.319,4.319,4.319,90,90,90,-17.049
FeCdO3,Fe,Cd,orthorhombic,-1.136,0.225,0.8,12.169,0.0,5.404,5.444,8.272,90,90,90,-6.388999999999999
FeCeO3,Fe,Ce,orthorhombic,-2.463,0.20600000000000002,1,14.287,1.584,5.697,5.723,8.764,90,90,90,-6.169
FeCoO3,Fe,Co,cubic,-0.6509999999999999,0.812,1.224,9.292,0.0,3.595,3.595,3.595,90,90,90,-1.547
FeCrO3,Fe,Cr,cubic,-1.145,0.92,1.433,12.253,0.0,3.942,3.942,3.942,90,90,90,-2.381
FeCuO3,Fe,Cu,cubic,0.413,1.571,1.302,16.651,0.0,4.367,4.367,4.367,90,90,90,-11.216
FeDyO3,Fe,Dy,cubic,-1.335,1.4480000000000002,1.001,15.497,0.0,4.263,4.263,4.263,90,90,90,-5.519
FeErO3,Fe,Er,cubic,-1.331,1.464,0.818,13.992,0.0,4.12,4.12,4.12,90,90,90,-5.831
FeEuO3,Fe,Eu,orthorhombic,-2.13,0.28600000000000003,0.8,13.439,0.23199999999999998,5.643,5.67,8.401,90,90,90,-7.932
Fe2O3,Fe,Fe,cubic,-0.9359999999999999,0.7140000000000001,1.658,10.338,0.0,3.725,3.725,3.725,90,90,90,-1.446
FeGaO3,Fe,Ga,cubic,-0.9790000000000001,0.898,0.999,10.419,0.0,3.735,3.735,3.735,90,90,90,-3.176
FeGdO3,Fe,Gd,orthorhombic,-2.5869999999999997,0.179,1,12.88,1.6380000000000001,5.532,5.565,8.369,90,90,90,-5.837000000000001
FeHfO3,Fe,Hf,cubic,-2.22,0.691,0.8,13.214,0.0,4.043,4.043,4.043,90,90,90,0.664
FeHgO3,Fe,Hg,orthorhombic,-0.812,0.195,0.852,12.624,0.0,5.322,5.442,8.718,90,90,90,-8.749
FeHoO3,Fe,Ho,cubic,-1.2990000000000002,1.49,1.001,18.12,0.0,4.491,4.491,4.491,90,90,90,-6.084
FeIrO3,Fe,Ir,cubic,-0.426,0.878,0.897,11.220999999999998,0.0,3.828,3.828,3.828,90,90,90,-0.9620000000000001
FeLaO3,Fe,La,orthorhombic,-2.577,0.17800000000000002,1,14.207,1.742,5.688,5.694,8.774,90,90,90,-6.303
FeLiO3,Fe,Li,orthorhombic,-1.175,0.376,0.6,8.67,0.0,4.805,5.041,7.159,90,90,90,-5.4510000000000005
FeMnO3,Fe,Mn,cubic,-1.138,0.695,1.487,10.255999999999998,0.0,3.715,3.715,3.715,90,90,90,-1.399
FeMoO3,Fe,Mo,rhombohedral,-1.736,0.204,0.417,10.999,0.0,5.404,5.404,5.404,59.4,59.4,59.4,3.347
FeNbO3,Fe,Nb,orthorhombic,-2.137,0.205,0.603,11.027000000000001,0.0,5.289,5.448,7.654,90,90,90,3.8789999999999996
FeNiO3,Fe,Ni,cubic,-0.519,0.815,1.133,9.512,0.0,3.623,3.623,3.623,90,90,90,-2.889
FeOsO3,Fe,Os,cubic,-0.7190000000000001,0.629,0.64,11.449000000000002,0.0,3.854,3.854,3.854,90,90,90,1.0170000000000001
FePmO3,Fe,Pm,orthorhombic,-2.532,0.195,1,13.470999999999998,1.787,5.614,5.62,8.539,90,90,90,-6.992999999999999
FePtO3,Fe,Pt,cubic,-0.185,0.988,0.918,12.075,0.0,3.923,3.923,3.923,90,90,90,-2.384
FeReO3,Fe,Re,cubic,-1.072,0.561,0.661,12.073,0.0,3.923,3.923,3.923,90,90,90,1.515
FeRhO3,Fe,Rh,cubic,-0.455,0.8370000000000001,1.044,11.49,0.0,3.859,3.859,3.859,90,90,90,-1.01
FeSiO3,Fe,Si,cubic,-1.9080000000000001,0.594,0.8,8.664,0.0,3.512,3.512,3.512,90,90,90,3.687
FeSrO3,Fe,Sr,orthorhombic,-1.9780000000000002,0.21,0.8,14.629000000000001,0.0,5.582,5.783,9.064,90,90,90,-8.054
FeTaO3,Fe,Ta,orthorhombic,-2.2880000000000003,0.272,0.619,11.095,0.0,5.178,5.767,7.432,90,90,90,4.7
FeTbO3,Fe,Tb,cubic,-1.188,1.455,0.983,15.677999999999999,0.0,4.28,4.28,4.28,90,90,90,-5.343999999999999
FeTcO3,Fe,Tc,orthorhombic,-1.475,0.153,1.004,10.405,0.0,5.135,5.373,7.543,90,90,90,2.8810000000000002
FeTeO3,Fe,Te,cubic,-0.652,0.7709999999999999,0.675,13.545,0.0,4.076,4.076,4.076,90,90,90,0.539
FeTiO3,Fe,Ti,cubic,-2.033,0.5670000000000001,0.799,11.18,0.0,3.824,3.824,3.824,90,90,90,1.521
FeTlO3,Fe,Tl,orthorhombic,-1.146,0.14800000000000002,1,12.604000000000001,0.664,5.458,5.471,8.441,90,90,90,-5.325
FeTmO3,Fe,Tm,cubic,-1.45,1.3730000000000002,1.003,14.675,0.0,4.187,4.187,4.187,90,90,90,-4.947
FeYbO3,Fe,Yb,orthorhombic,-2.1319999999999997,0.252,1.081,12.484000000000002,0.0,5.523,5.641,8.013,90,90,90,-6.404
FeZnO3,Fe,Zn,cubic,-0.065,1.4669999999999999,1.2,15.474,0.0,4.261,4.261,4.261,90,90,90,-8.42
FeZrO3,Fe,Zr,cubic,-2.02,0.768,0.8,13.774000000000001,0.0,4.099,4.099,4.099,90,90,90,-0.155
GaAcO3,Ga,Ac,orthorhombic,-2.8560000000000003,0.057,0,15.888,2.9960000000000004,4.54,6.777,10.328,90,90,90,-2.9810000000000003
GaAgO3,Ga,Ag,orthorhombic,-0.976,0.187,-,11.287,0.0,5.139,5.195,8.455,90,90,90,-4.033
GaAlO3,Ga,Al,cubic,-1.81,0.873,-,9.633,0.0,3.638,3.638,3.638,90,90,90,-2.101
GaAsO3,Ga,As,cubic,-0.972,0.802,-,10.91,0.0,3.793,3.793,3.793,90,90,90,1.189
GaAuO3,Ga,Au,cubic,-0.05,1.141,-,13.124,0.0,4.033,4.033,4.033,90,90,90,-0.5710000000000001
GaBO3,Ga,B,cubic,-0.9620000000000001,1.4,-,7.415,0.0,3.334,3.334,3.334,90,90,90,-1.46
GaBaO3,Ga,Ba,orthorhombic,-2.144,0.086,-,16.180999999999997,0.0,5.418,6.343,9.417,90,90,90,-6.223
GaBeO3,Ga,Be,cubic,-1.127,1.11,-,8.033,0.0,3.425,3.425,3.425,90,90,90,-3.958
GaBiO3,Ga,Bi,orthorhombic,-1.645,0.153,-,15.009,1.6,5.373,6.159,9.071,90,90,90,-1.4080000000000001
GaCaO3,Ga,Ca,orthorhombic,-2.225,0.17300000000000001,-,12.78,0.0,5.274,5.665,8.555,90,90,90,-7.54
GaCdO3,Ga,Cd,orthorhombic,-1.364,0.20199999999999999,-,12.293,0.0,5.318,5.556,8.321,90,90,90,-6.244
GaCeO3,Ga,Ce,rhombohedral,-2.702,0.151,0,15.64,3.2760000000000002,6.35,6.35,6.35,54.2,54.2,54.2,-4.648
GaCoO3,Ga,Co,cubic,0.188,1.865,0.405,18.073,0.0,4.487,4.487,4.487,90,90,90,-11.419
GaCrO3,Ga,Cr,cubic,-1.3940000000000001,0.897,0.433,10.66,0.0,3.763,3.763,3.763,90,90,90,-1.107
GaCsO3,Ga,Cs,cubic,0.297,1.911,-,17.095,0.0,4.405,4.405,4.405,90,90,90,-9.033
GaCuO3,Ga,Cu,cubic,-0.43700000000000006,0.9359999999999999,-,9.964,0.0,3.68,3.68,3.68,90,90,90,-3.6830000000000003
GaDyO3,Ga,Dy,cubic,-1.6230000000000002,1.365,-0.401,16.516,0.0,4.355,4.355,4.355,90,90,90,-4.6530000000000005
GaErO3,Ga,Er,cubic,-1.666,1.341,-0.408,15.944,0.0,4.304,4.304,4.304,90,90,90,-4.6530000000000005
GaEuO3,Ga,Eu,orthorhombic,-2.3890000000000002,0.054000000000000006,0.2,13.375,0.695,5.225,5.829,8.783,90,90,90,-6.403
GaFeO3,Ga,Fe,cubic,-0.988,0.889,0.751,10.572000000000001,0.0,3.753,3.753,3.753,90,90,90,-2.251
Ga2O3,Ga,Ga,cubic,-1.034,1.067,-,10.857999999999999,0.0,3.787,3.787,3.787,90,90,90,-3.944
GaGdO3,Ga,Gd,rhombohedral,-2.822,0.17600000000000002,0,13.7,3.228,5.996,5.996,5.996,55.6,55.6,55.6,-4.671
GaGeO3,Ga,Ge,cubic,-1.238,0.6679999999999999,-,10.315999999999999,0.0,3.722,3.722,3.722,90,90,90,1.949
GaHfO3,Ga,Hf,cubic,-2.349,0.654,0.042,13.565,0.0,4.078,4.078,4.078,90,90,90,0.75
GaHgO3,Ga,Hg,cubic,0.11,1.3430000000000002,-,14.145,0.0,4.135,4.135,4.135,90,90,90,-5.349
GaHoO3,Ga,Ho,cubic,-1.649,1.349,-0.402,16.417,0.0,4.346,4.346,4.346,90,90,90,-4.627
GaInO3,Ga,In,cubic,-0.6579999999999999,1.315,-,13.767999999999999,0.0,4.098,4.098,4.098,90,90,90,-5.324
GaIrO3,Ga,Ir,cubic,-0.682,0.848,0.121,11.978,0.0,3.912,3.912,3.912,90,90,90,1.044
GaKO3,Ga,K,orthorhombic,-1.386,0.257,-,15.222000000000001,1.8869999999999998,5.73,6.759,7.86,90,90,90,-14.002
GaLaO3,Ga,La,rhombohedral,-2.807,0.128,0,15.84,3.3369999999999997,6.404,6.404,6.404,53.7,53.7,53.7,-4.204
GaLiO3,Ga,Li,cubic,-0.355,1.439,-,8.755,0.0,3.524,3.524,3.524,90,90,90,-5.544
GaLuO3,Ga,Lu,cubic,-1.7380000000000002,1.2930000000000001,-0.398,15.276,0.0,4.243,4.243,4.243,90,90,90,-4.527
GaMgO3,Ga,Mg,cubic,-0.946,1.321,-,10.927999999999999,0.0,3.795,3.795,3.795,90,90,90,-5.303999999999999
GaMnO3,Ga,Mn,cubic,-1.208,0.851,0.611,10.503,0.0,3.745,3.745,3.745,90,90,90,-1.828
GaMoO3,Ga,Mo,cubic,-1.725,0.298,0,12.174000000000001,0.0,3.934,3.934,3.934,90,90,90,4.552
GaNaO3,Ga,Na,orthorhombic,-1.39,0.326,-,12.015999999999998,1.633,5.574,6.025,7.156,90,90,90,-10.839
GaNbO3,Ga,Nb,tetragonal,-2.186,0.159,0,13.115,0.29600000000000004,3.963,3.963,4.175,90,90,90,4.928
GaNdO3,Ga,Nd,rhombohedral,-2.7489999999999997,0.14300000000000002,0,14.98,3.279,6.254,6.254,6.254,54.3,54.3,54.3,-4.496
GaNiO3,Ga,Ni,cubic,-0.575,0.9940000000000001,0.149,9.735,0.0,3.651,3.651,3.651,90,90,90,-3.142
GaNpO3,Ga,Np,rhombohedral,-2.695,0.231,0.8,14.96,0.5489999999999999,6.146,6.146,6.146,56.2,56.2,56.2,1.275
GaOsO3,Ga,Os,cubic,-0.97,0.604,0.003,11.827,0.0,3.896,3.896,3.896,90,90,90,3.04
GaPaO3,Ga,Pa,orthorhombic,-2.435,0.125,0,15.708,2.72,6.024,6.07,8.592,90,90,90,5.587000000000001
GaPdO3,Ga,Pd,cubic,-0.363,0.9470000000000001,-,12.012,0.0,3.916,3.916,3.916,90,90,90,-2.645
GaPmO3,Ga,Pm,rhombohedral,-2.7760000000000002,0.136,0,14.693,3.372,6.202,6.202,6.202,54.5,54.5,54.5,-4.558
GaPrO3,Ga,Pr,rhombohedral,-2.728,0.147,0,15.29,3.177,6.299,6.299,6.299,54.2,54.2,54.2,-4.886
GaPtO3,Ga,Pt,cubic,-0.409,0.99,0,12.354000000000001,0.0,3.953,3.953,3.953,90,90,90,-0.12300000000000001
GaPuO3,Ga,Pu,orthorhombic,-2.799,0.096,1,15.100999999999999,1.347,5.363,6.069,9.28,90,90,90,0.763
GaRbO3,Ga,Rb,orthorhombic,-1.371,0.254,-,16.762999999999998,1.9669999999999999,5.779,7.022,8.261,90,90,90,-13.296
GaReO3,Ga,Re,cubic,-1.3940000000000001,0.425,0,11.944,0.0,3.909,3.909,3.909,90,90,90,4.492
GaRhO3,Ga,Rh,cubic,-0.65,0.867,0.134,11.785,0.0,3.891,3.891,3.891,90,90,90,-0.9159999999999999
GaRuO3,Ga,Ru,cubic,-0.9229999999999999,0.6970000000000001,0.005,11.697000000000001,0.0,3.882,3.882,3.882,90,90,90,1.601
GaSbO3,Ga,Sb,cubic,-1.237,0.604,-,12.735999999999999,0.0,3.993,3.993,3.993,90,90,90,2.6039999999999996
GaScO3,Ga,Sc,cubic,-1.744,1.21,-0.011,13.008,0.0,4.022,4.022,4.022,90,90,90,-4.511
GaSiO3,Ga,Si,cubic,-1.882,0.662,-,8.921,0.0,3.546,3.546,3.546,90,90,90,3.1839999999999997
GaSmO3,Ga,Sm,rhombohedral,-2.7760000000000002,0.151,0,14.206,3.133,6.069,6.069,6.069,55.6,55.6,55.6,-4.673
GaSnO3,Ga,Sn,cubic,-1.166,0.777,-,12.978,0.0,4.018,4.018,4.018,90,90,90,0.718
GaSrO3,Ga,Sr,orthorhombic,-2.191,0.192,-,14.390999999999998,0.0,5.305,5.986,9.064,90,90,90,-6.999
GaTaO3,Ga,Ta,tetragonal,-2.396,0.146,0,12.719000000000001,0.9890000000000001,3.966,3.966,4.044,90,90,90,5.757000000000001
GaTbO3,Ga,Tb,rhombohedral,-2.708,0.139,0,13.53,3.176,5.972,5.972,5.972,55.6,55.6,55.6,-4.648
GaTcO3,Ga,Tc,rhombohedral,-1.49,0.325,0.19,10.321,0.0,5.131,5.131,5.131,63.6,63.6,63.6,3.708
GaTeO3,Ga,Te,cubic,-0.953,0.6829999999999999,-,13.607000000000001,0.0,4.082,4.082,4.082,90,90,90,1.445
GaThO3,Ga,Th,cubic,-2.295,0.948,-0.178,18.410999999999998,0.0,4.515,4.515,4.515,90,90,90,-0.24
GaTiO3,Ga,Ti,cubic,-2.1,0.546,0,11.481,0.0,3.858,3.858,3.858,90,90,90,1.1740000000000002
GaTlO3,Ga,Tl,orthorhombic,-1.3769999999999998,0.142,-,12.615,0.21600000000000003,5.393,5.52,8.475,90,90,90,-5.617999999999999
GaTmO3,Ga,Tm,cubic,-1.702,1.314,-0.399,15.834000000000001,0.0,4.294,4.294,4.294,90,90,90,-4.551
GaUO3,Ga,U,tetragonal,-2.623,0.369,0.2,16.167,2.492,4.308,4.332,4.332,90,90,90,4.188
GaVO3,Ga,V,cubic,-1.719,0.6459999999999999,-0.078,10.860999999999999,0.0,3.787,3.787,3.787,90,90,90,1.138
GaWO3,Ga,W,cubic,-1.84,0.19,0,12.222000000000001,0.0,3.939,3.939,3.939,90,90,90,5.257000000000001
GaYO3,Ga,Y,rhombohedral,-2.835,0.134,0,13.399000000000001,3.344,5.952,5.952,5.952,55.6,55.6,55.6,-5.202000000000001
GaYbO3,Ga,Yb,orthorhombic,-2.358,0.096,-,12.389000000000001,0.0,5.187,5.641,8.468,90,90,90,-6.984
GaZnO3,Ga,Zn,cubic,-0.512,1.2309999999999999,-,10.825999999999999,0.0,3.783,3.783,3.783,90,90,90,-4.946000000000001
GaZrO3,Ga,Zr,cubic,-2.173,0.7070000000000001,-0.088,14.219000000000001,0.0,4.143,4.143,4.143,90,90,90,0.185
GdAcO3,Gd,Ac,cubic,-2.225,1.4609999999999999,0,20.281,0.0,4.663,4.663,4.663,90,90,90,1.081
GdAgO3,Gd,Ag,cubic,-1.484,0.525,0,13.023,0.0,4.023,4.023,4.023,90,90,90,-0.40700000000000003
GdAlO3,Gd,Al,orthorhombic,-3.569,-0.040999999999999995,0,10.339,5.604,5.221,5.333,7.428,90,90,90,6.35
GdAsO3,Gd,As,cubic,-1.959,0.66,0,12.804,0.0,4,4,4,90,90,90,2.291
GdAuO3,Gd,Au,cubic,-1.348,0.727,0,13.762,0.0,4.098,4.098,4.098,90,90,90,-0.5
GdBO3,Gd,B,cubic,-2.513,0.779,0,8.405,2.803,3.477,3.477,3.477,90,90,90,5.367000000000001
GdBaO3,Gd,Ba,orthorhombic,-2.8089999999999997,0.268,0.201,18.822,0.619,6.507,6.793,8.517,90,90,90,-6.9879999999999995
GdBeO3,Gd,Be,orthorhombic,-2.741,0.341,0.2,9.075,0.0,5.025,5.08,7.111,90,90,90,-0.7709999999999999