formula,atom a,atom b,lowest distortion,e_form,e_hull,mu_b,vpa,gap pbe,a,b,c,alpha,beta,gamma,e_form oxygen
TlGdO3,Tl,Gd,orthorhombic,-2.261,0.10400000000000001,0.001,14.658,0.8959999999999999,5.826,5.908,8.517,90,90,90,-3.09
TlGeO3,Tl,Ge,tetragonal,-1.304,0.175,-,12.684000000000001,0.0,3.584,3.584,4.937,90,90,90,1.4180000000000001
TlHfO3,Tl,Hf,orthorhombic,-2.504,0.145,0,13.505,0.0,5.706,5.82,8.133,90,90,90,0.9740000000000001
TlHgO3,Tl,Hg,cubic,-0.043,0.608,-,14.798,0.0,4.198,4.198,4.198,90,90,90,-2.9560000000000004
TlHoO3,Tl,Ho,orthorhombic,-2.311,0.095,0,14.136,0.8759999999999999,5.75,5.848,8.408,90,90,90,-3.0180000000000002
TlInO3,Tl,In,orthorhombic,-1.3319999999999999,0.057999999999999996,-,13.198,0.0,5.604,5.722,8.232,90,90,90,-3.323
TlIrO3,Tl,Ir,orthorhombic,-0.8220000000000001,0.161,0,12.100999999999999,0.0,5.515,5.581,7.863,90,90,90,1.3619999999999999
TlKO3,Tl,K,cubic,0.519,1.599,-,17.374000000000002,0.0,4.429,4.429,4.429,90,90,90,-10.517999999999999
TlLaO3,Tl,La,orthorhombic,-2.2159999999999997,0.109,0,16.127,1.05,6.005,6.08,8.835,90,90,90,-2.779
TlLiO3,Tl,Li,cubic,-0.34,0.81,-,10.226,0.0,3.712,3.712,3.712,90,90,90,-3.9810000000000003
TlLuO3,Tl,Lu,orthorhombic,-2.366,0.083,0,13.522,0.9309999999999999,5.649,5.772,8.295,90,90,90,-2.715
TlMgO3,Tl,Mg,cubic,-1.033,0.623,-,11.843,0.0,3.898,3.898,3.898,90,90,90,-3.24
TlMnO3,Tl,Mn,orthorhombic,-1.426,0.051,0.797,11.424000000000001,0.0,5.341,5.538,7.725,90,90,90,-0.182
TlMoO3,Tl,Mo,cubic,-1.74,0.145,0,12.788,0.0,3.999,3.999,3.999,90,90,90,4.1610000000000005
TlNaO3,Tl,Na,cubic,0.16,1.261,-,13.277000000000001,0.0,4.049,4.049,4.049,90,90,90,-7.643
TlNbO3,Tl,Nb,tetragonal,-2.2230000000000003,0.065,0,13.712,0.44799999999999995,4.032,4.032,4.218,90,90,90,4.564
TlNdO3,Tl,Nd,orthorhombic,-2.164,0.115,0,15.638,1.014,5.955,6.036,8.702,90,90,90,-3.035
TlNiO3,Tl,Ni,orthorhombic,-0.862,0.10300000000000001,0.199,10.857000000000001,0.0,5.273,5.437,7.573,90,90,90,-1.463
TlNpO3,Tl,Np,rhombohedral,-2.4659999999999997,0.105,0.4,16.26,1.113,6.14,6.14,6.14,59.7,59.7,59.7,1.24
TlOsO3,Tl,Os,cubic,-0.9790000000000001,0.133,0,12.443,0.0,3.962,3.962,3.962,90,90,90,2.445
TlPaO3,Tl,Pa,cubic,-2.563,-0.358,0,17.211,3.3989999999999996,4.415,4.415,4.415,90,90,90,5.8
TlPbO3,Tl,Pb,orthorhombic,-0.972,0.114,-,15.039000000000001,0.0,5.882,5.964,8.574,90,90,90,-1.4969999999999999
TlPdO3,Tl,Pd,orthorhombic,-0.7340000000000001,0.006999999999999999,-,12.197000000000001,0.0,5.445,5.615,7.979,90,90,90,-0.958
TlPmO3,Tl,Pm,cubic,-1.624,0.6829999999999999,-0.073,18.419,0.0,4.516,4.516,4.516,90,90,90,-3.37
TlPrO3,Tl,Pr,orthorhombic,-2.14,0.11699999999999999,0,15.939,0.971,5.998,6.07,8.756,90,90,90,-2.864
TlPtO3,Tl,Pt,orthorhombic,-0.7020000000000001,0.226,-0.001,12.457,0.0,5.531,5.694,7.912,90,90,90,-0.184
TlPuO3,Tl,Pu,orthorhombic,-2.246,0.055999999999999994,0.798,15.450999999999999,0.0,5.886,6.121,8.577,90,90,90,0.8759999999999999
TlRbO3,Tl,Rb,orthorhombic,-0.7340000000000001,0.32,-,18.727999999999998,0.0,6.419,6.52,8.95,90,90,90,-9.943999999999999
TlReO3,Tl,Re,cubic,-1.3969999999999998,0.203,0,12.542,0.0,3.973,3.973,3.973,90,90,90,3.9530000000000003
TlRhO3,Tl,Rh,orthorhombic,-0.914,0.054000000000000006,0,11.85,0.0,5.44,5.58,7.807,90,90,90,0.486
TlRuO3,Tl,Ru,orthorhombic,-0.96,0.147,0.235,12.073,0.0,5.542,5.576,7.814,90,90,90,1.828
TlSbO3,Tl,Sb,cubic,-1.2770000000000001,0.268,-,13.556,0.0,4.077,4.077,4.077,90,90,90,1.98
TlScO3,Tl,Sc,orthorhombic,-2.296,0.077,0,12.484000000000002,1.265,5.49,5.647,8.053,90,90,90,-2.416
TlSiO3,Tl,Si,tetragonal,-1.8330000000000002,0.35600000000000004,-,11.169,0.0,3.437,3.437,4.726,90,90,90,2.079
TlSmO3,Tl,Sm,rhombohedral,-2.213,0.106,0,16.055999999999997,1.625,6.248,6.248,6.248,57,57,57,-3.0069999999999997
TlSnO3,Tl,Sn,orthorhombic,-1.365,0.16,-,13.377,0.0,5.693,5.781,8.13,90,90,90,0.873
TlSrO3,Tl,Sr,orthorhombic,-1.483,0.26,-,16.873,0.0,5.884,6.217,9.224,90,90,90,-5.3839999999999995
TlTaO3,Tl,Ta,tetragonal,-2.4219999999999997,0.034,0,13.343,0.836,4.037,4.037,4.093,90,90,90,5.4270000000000005
TlTbO3,Tl,Tb,orthorhombic,-2.148,0.10099999999999999,0.001,14.477,0.958,5.801,5.883,8.484,90,90,90,-2.923
TlTcO3,Tl,Tc,cubic,-1.345,0.11800000000000001,-0.001,12.459000000000001,0.0,3.964,3.964,3.964,90,90,90,3.125
TlTeO3,Tl,Te,tetragonal,-1.035,0.139,-,14.575,0.0,4.089,4.089,4.358,90,90,90,1.166
TlThO3,Tl,Th,orthorhombic,-2.611,0.27699999999999997,0,16.805999999999997,0.0,6.024,6.302,8.854,90,90,90,0.057999999999999996
TlTiO3,Tl,Ti,orthorhombic,-2.156,0.165,0,12.0,0.0,5.513,5.57,7.815,90,90,90,1.1520000000000001
Tl2O3,Tl,Tl,orthorhombic,-0.857,0.08,-,14.299000000000001,0.0,5.718,5.814,8.602,90,90,90,-3.72
TlTmO3,Tl,Tm,orthorhombic,-2.346,0.08800000000000001,0,13.809000000000001,0.907,5.701,5.804,8.347,90,90,90,-2.758
TlUO3,Tl,U,cubic,-2.745,-0.10800000000000001,0.2,16.675,2.695,4.369,4.369,4.369,90,90,90,4.183
TlVO3,Tl,V,orthorhombic,-1.754,0.21600000000000003,0.399,11.634,0.0,5.406,5.513,7.807,90,90,90,1.8219999999999998
TlWO3,Tl,W,cubic,-1.845,0.111,0,12.807,0.0,4.001,4.001,4.001,90,90,90,4.966
TlYO3,Tl,Y,orthorhombic,-2.278,0.095,0,14.368,1.095,5.787,5.866,8.465,90,90,90,-3.435
TlYbO3,Tl,Yb,cubic,-1.043,0.8290000000000001,-,14.664000000000001,0.0,4.185,4.185,4.185,90,90,90,-4.42
TlZnO3,Tl,Zn,cubic,-0.58,0.5479999999999999,-,11.667,0.0,3.878,3.878,3.878,90,90,90,-2.8139999999999996
TlZrO3,Tl,Zr,orthorhombic,-2.36,0.165,0,13.870999999999999,0.0,5.748,5.881,8.208,90,90,90,0.508
TmAcO3,Tm,Ac,orthorhombic,-3.548,0.223,0,16.948,3.315,6.091,6.223,8.943,90,90,90,0.33399999999999996
TmAgO3,Tm,Ag,cubic,-1.351,0.728,0,12.857000000000001,0.0,4.006,4.006,4.006,90,90,90,-0.825
TmAlO3,Tm,Al,orthorhombic,-3.616,-0.017,0,9.976,6.1979999999999995,5.108,5.339,7.316,90,90,90,6.232
TmAsO3,Tm,As,cubic,-1.825,0.8640000000000001,0,12.578,0.0,3.977,3.977,3.977,90,90,90,1.9380000000000002
TmAuO3,Tm,Au,cubic,-1.204,0.902,0,13.602,0.0,4.082,4.082,4.082,90,90,90,-0.917
TmBO3,Tm,B,cubic,-2.537,0.74,0,8.012,3.153,3.422,3.422,3.422,90,90,90,5.492999999999999
TmBaO3,Tm,Ba,orthorhombic,-2.861,0.282,0.201,18.032,0.645,6.429,6.76,8.299,90,90,90,-8.566
TmBeO3,Tm,Be,tetragonal,-2.8169999999999997,0.335,0.032,9.338,0.0,3.266,3.266,4.378,90,90,90,-1.1909999999999998
TmBiO3,Tm,Bi,cubic,-1.4280000000000002,1.275,0,16.531,0.0,4.356,4.356,4.356,90,90,90,0.344
TmCdO3,Tm,Cd,cubic,-1.511,0.9490000000000001,0,13.539000000000001,0.0,4.076,4.076,4.076,90,90,90,-1.311
TmCeO3,Tm,Ce,cubic,-2.207,1.5190000000000001,0,18.576,0.0,4.529,4.529,4.529,90,90,90,1.8869999999999998
TmCoO3,Tm,Co,orthorhombic,-2.5660000000000003,0.027000000000000003,0,10.493,1.392,5.113,5.544,7.404,90,90,90,2.096
TmCrO3,Tm,Cr,orthorhombic,-3.2289999999999996,-0.022000000000000002,0.6,10.864,2.496,5.209,5.541,7.528,90,90,90,4.031000000000001
TmCuO3,Tm,Cu,orthorhombic,-2.306,0.004,0,10.66,0.268,5.152,5.823,7.106,90,90,90,0.436
TmDyO3,Tm,Dy,cubic,-2.8110000000000004,1.08,0,15.37,1.006,4.252,4.252,4.252,90,90,90,0.065
TmErO3,Tm,Er,cubic,-2.9139999999999997,1.0,0,14.878,1.306,4.206,4.206,4.206,90,90,90,0.816
TmEuO3,Tm,Eu,orthorhombic,-3.1189999999999998,0.205,0.2,14.960999999999999,0.0,5.615,5.729,9.301,90,90,90,-2.593
TmFeO3,Tm,Fe,orthorhombic,-2.805,0.017,1,10.985,1.235,5.229,5.559,7.559,90,90,90,2.865
TmGaO3,Tm,Ga,orthorhombic,-2.997,0.019,0,10.799000000000001,4.07,5.206,5.526,7.508,90,90,90,4.273
TmGdO3,Tm,Gd,cubic,-2.694,1.169,0,15.965,0.6729999999999999,4.306,4.306,4.306,90,90,90,-0.7709999999999999
TmGeO3,Tm,Ge,cubic,-2.144,0.672,0,11.398,0.0,3.848,3.848,3.848,90,90,90,2.6039999999999996
TmHfO3,Tm,Hf,cubic,-3.054,0.64,0,13.424000000000001,0.0,4.064,4.064,4.064,90,90,90,4.327
TmHgO3,Tm,Hg,cubic,-1.084,1.064,0,14.544,0.0,4.174,4.174,4.174,90,90,90,-1.215
TmHoO3,Tm,Ho,cubic,-2.863,1.04,0,15.075999999999999,1.1540000000000001,4.224,4.224,4.224,90,90,90,0.436
TmInO3,Tm,In,cubic,-2.065,0.823,0,13.593,1.2890000000000001,4.081,4.081,4.081,90,90,90,2.513
TmIrO3,Tm,Ir,cubic,-1.5659999999999998,0.878,0,12.215,0.0,3.938,3.938,3.938,90,90,90,-1.2790000000000001
TmKO3,Tm,K,orthorhombic,-2.089,0.45399999999999996,0.4,17.528,0.0,5.827,5.847,10.289,90,90,90,-4.209
TmLaO3,Tm,La,cubic,-2.3280000000000003,1.494,0,18.215,0.0,4.499,4.499,4.499,90,90,90,1.591
TmLiO3,Tm,Li,cubic,-2.064,0.583,0.398,9.312999999999999,0.0,3.598,3.598,3.598,90,90,90,-1.574
TmLuO3,Tm,Lu,cubic,-3.0610000000000004,0.8859999999999999,0,14.17,1.726,4.138,4.138,4.138,90,90,90,1.867
TmMgO3,Tm,Mg,cubic,-2.551,0.602,0.2,10.823,0.0,3.782,3.782,3.782,90,90,90,-1.829
TmMnO3,Tm,Mn,orthorhombic,-2.9810000000000003,0.043,0.8,11.019,0.41100000000000003,5.22,5.688,7.422,90,90,90,3.2960000000000003
TmMoO3,Tm,Mo,cubic,-2.195,0.74,0.004,12.267999999999999,0.0,3.944,3.944,3.944,90,90,90,1.26
TmNaO3,Tm,Na,cubic,-1.364,1.181,0.4,11.814,0.0,3.895,3.895,3.895,90,90,90,-3.1660000000000004
TmNbO3,Tm,Nb,cubic,-2.5180000000000002,0.7290000000000001,0,12.974,0.0,4.018,4.018,4.018,90,90,90,2.767
TmNdO3,Tm,Nd,cubic,-2.3890000000000002,1.3880000000000001,0,17.55,0.0,4.444,4.444,4.444,90,90,90,-2.718
TmNiO3,Tm,Ni,orthorhombic,-2.435,0.027999999999999997,0.2,10.252,0.0,5.096,5.51,7.302,90,90,90,0.857
TmNpO3,Tm,Np,cubic,-2.494,1.23,0.751,17.067,0.0,4.403,4.403,4.403,90,90,90,1.7180000000000002
TmOsO3,Tm,Os,cubic,-1.611,0.877,0.005,12.089,0.0,3.924,3.924,3.924,90,90,90,-0.34600000000000003
TmPaO3,Tm,Pa,cubic,-2.319,1.041,0.248,17.753,0.0,4.461,4.461,4.461,90,90,90,2.359
TmPbO3,Tm,Pb,orthorhombic,-2.362,0.221,0,14.592,0.0,5.734,6.002,8.481,90,90,90,0.49
TmPdO3,Tm,Pd,cubic,-1.642,0.583,0,12.206,0.0,3.937,3.937,3.937,90,90,90,-0.365
TmPmO3,Tm,Pm,cubic,-2.48,1.324,0,17.048,0.0,4.401,4.401,4.401,90,90,90,-2.151
TmPrO3,Tm,Pr,cubic,-2.3040000000000003,1.45,0,18.02,0.0,4.483,4.483,4.483,90,90,90,-3.262
TmPtO3,Tm,Pt,cubic,-1.473,0.841,0,12.797,0.0,4,4,4,90,90,90,-0.8190000000000001
TmPuO3,Tm,Pu,cubic,-2.55,1.2329999999999999,0.891,16.579,0.0,4.36,4.36,4.36,90,90,90,2.549
TmRbO3,Tm,Rb,orthorhombic,-2.055,0.479,0.4,18.959,0.0,5.815,5.858,11.132,90,90,90,-9.129
TmReO3,Tm,Re,cubic,-1.8230000000000002,0.9359999999999999,0.155,12.19,0.0,3.935,3.935,3.935,90,90,90,-0.23800000000000002
TmRhO3,Tm,Rh,cubic,-1.78,0.653,0.001,11.866,0.0,3.9,3.9,3.9,90,90,90,-0.484
TmRuO3,Tm,Ru,cubic,-1.8319999999999999,0.7040000000000001,0.135,11.850999999999999,0.0,3.899,3.899,3.899,90,90,90,0.27
TmSbO3,Tm,Sb,cubic,-1.6469999999999998,1.109,0,14.767999999999999,0.0,4.195,4.195,4.195,90,90,90,0.33399999999999996
TmScO3,Tm,Sc,cubic,-3.241,0.629,0,12.507,2.748,3.969,3.969,3.969,90,90,90,4.9110000000000005
TmSiO3,Tm,Si,cubic,-2.594,0.7909999999999999,0,9.755,0.0,3.654,3.654,3.654,90,90,90,4.438
TmSmO3,Tm,Sm,cubic,-2.537,1.2790000000000001,0,16.736,0.355,4.374,4.374,4.374,90,90,90,-1.761
TmSnO3,Tm,Sn,cubic,-1.9280000000000002,0.945,0.001,13.69,0.0,4.091,4.091,4.091,90,90,90,2.161
TmSrO3,Tm,Sr,orthorhombic,-2.964,0.24100000000000002,0.2,16.179000000000002,0.922,6.216,6.361,8.184,90,90,90,-4.547
TmTaO3,Tm,Ta,cubic,-2.6010000000000004,0.757,0.001,12.763,0.0,3.996,3.996,3.996,90,90,90,2.7539999999999996
TmTbO3,Tm,Tb,cubic,-2.623,1.123,0,15.658,0.861,4.278,4.278,4.278,90,90,90,-0.33799999999999997
TmTcO3,Tm,Tc,cubic,-2.002,0.7290000000000001,0.315,12.04,0.0,3.919,3.919,3.919,90,90,90,0.735
TmTeO3,Tm,Te,cubic,-1.339,1.249,0.003,15.097999999999999,0.0,4.226,4.226,4.226,90,90,90,0.499
TmThO3,Tm,Th,cubic,-2.7110000000000003,1.161,0.013,18.887999999999998,0.0,4.554,4.554,4.554,90,90,90,1.886
TmTiO3,Tm,Ti,orthorhombic,-3.4819999999999998,0.045,0.2,11.186,0.0,5.245,5.631,7.575,90,90,90,4.479
TmTlO3,Tm,Tl,orthorhombic,-2.301,0.133,0,13.812999999999999,0.887,5.48,5.825,8.656,90,90,90,0.355
Tm2O3,Tm,Tm,cubic,-2.9760000000000004,0.956,0,14.604000000000001,1.456,4.18,4.18,4.18,90,90,90,1.36
TmUO3,Tm,U,cubic,-2.505,1.179,0.514,16.852,0.0,4.384,4.384,4.384,90,90,90,1.536
TmVO3,Tm,V,orthorhombic,-3.293,-0.011000000000000001,0.4,11.162,1.382,5.245,5.632,7.558,90,90,90,3.8160000000000003
TmWO3,Tm,W,cubic,-2.119,0.826,0.002,12.354000000000001,0.0,3.953,3.953,3.953,90,90,90,0.777
TmYO3,Tm,Y,cubic,-2.787,1.083,0,15.360999999999999,1.077,4.251,4.251,4.251,90,90,90,0.048
TmYbO3,Tm,Yb,cubic,-2.299,1.07,-0.126,13.642999999999999,0.0,4.086,4.086,4.086,90,90,90,-2.262
TmZnO3,Tm,Zn,orthorhombic,-2.469,0.157,0,10.985999999999999,0.0,5.187,5.737,7.385,90,90,90,-0.49200000000000005
TmZrO3,Tm,Zr,cubic,-2.8819999999999997,0.728,0,13.975999999999999,0.0,4.119,4.119,4.119,90,90,90,3.957
UAcO3,U,Ac,cubic,-2.164,1.345,0.602,20.164,0.0,4.654,4.654,4.654,90,90,90,0.184
UAgO3,U,Ag,orthorhombic,-2.184,0.33,0.368,13.544,0.0,5.53,6.255,7.831,90,90,90,-2.108
UAlO3,U,Al,orthorhombic,-3.392,-0.011000000000000001,0.6,10.770999999999999,1.4280000000000002,5.34,5.349,7.54,90,90,90,4.383
UAsO3,U,As,cubic,-1.8159999999999998,0.9570000000000001,0.657,13.097999999999999,0.0,4.031,4.031,4.031,90,90,90,1.42
UAuO3,U,Au,cubic,-1.376,1.129,0.588,14.154000000000002,0.0,4.136,4.136,4.136,90,90,90,0.21899999999999997
UBO3,U,B,cubic,-2.116,1.062,0.579,9.215,0.0,3.585,3.585,3.585,90,90,90,3.3819999999999997
UBeO3,U,Be,cubic,-2.89,0.588,0.4,9.175,0.0,3.58,3.58,3.58,90,90,90,2.891
UCdO3,U,Cd,orthorhombic,-2.6,0.18600000000000003,0.4,14.039000000000001,2.146,5.62,6.035,8.278,90,90,90,-0.036000000000000004
UCeO3,U,Ce,cubic,-2.258,1.2209999999999999,0.6,18.799,0.0,4.547,4.547,4.547,90,90,90,0.6779999999999999
UCrO3,U,Cr,rhombohedral,-2.9589999999999996,0.16,1.2,11.898,0.418,5.471,5.471,5.471,61.2,61.2,61.2,4.9830000000000005
UDyO3,U,Dy,cubic,-2.815,0.8290000000000001,0.6,15.753,0.0,4.287,4.287,4.287,90,90,90,3.3960000000000004
UEuO3,U,Eu,cubic,-2.066,1.584,0.458,15.639000000000001,0.0,4.276,4.276,4.276,90,90,90,-6.272
UFeO3,U,Fe,cubic,-2.256,0.644,1.57,11.842,0.0,3.898,3.898,3.898,90,90,90,2.177
UGaO3,U,Ga,orthorhombic,-2.75,0.242,0.6,11.842,1.067,5.475,5.502,7.862,90,90,90,3.0460000000000003
UGdO3,U,Gd,cubic,-2.7060000000000004,0.909,0.6,16.31,0.0,4.337,4.337,4.337,90,90,90,2.735
UGeO3,U,Ge,cubic,-2.099,0.759,0.693,12.104000000000001,0.0,3.926,3.926,3.926,90,90,90,2.2430000000000003
UHfO3,U,Hf,orthorhombic,-3.25,0.19899999999999998,0.621,13.562000000000001,0.0,5.629,5.974,8.067,90,90,90,5.2589999999999995
UHgO3,U,Hg,orthorhombic,-2.226,0.29100000000000004,0.4,15.402999999999999,1.7730000000000001,5.681,6.135,8.838,90,90,90,-2.345
UIrO3,U,Ir,cubic,-1.6780000000000002,0.9329999999999999,0.6,12.83,0.0,4.003,4.003,4.003,90,90,90,0.675
UKO3,U,K,orthorhombic,-2.87,0.27,0.2,17.52,2.296,5.403,5.74,11.299,90,90,90,-3.13
ULaO3,U,La,cubic,-2.388,1.187,0.601,19.16,0.0,4.576,4.576,4.576,90,90,90,1.159
ULiO3,U,Li,orthorhombic,-3.0469999999999997,0.099,0.2,10.735,2.256,5.167,5.647,7.359,90,90,90,-2.292
UMgO3,U,Mg,orthorhombic,-3.363,0.107,0.4,11.777000000000001,3.156,5.348,5.732,7.683,90,90,90,0.9
UMnO3,U,Mn,orthorhombic,-2.991,0.115,1.4,12.780999999999999,1.8219999999999998,5.463,5.94,7.879,90,90,90,3.81
UMoO3,U,Mo,cubic,-2.307,0.631,0.621,12.796,0.0,4,4,4,90,90,90,2.262
UNaO3,U,Na,orthorhombic,-2.87,0.23800000000000002,0.2,13.162,2.597,5.483,5.74,8.365,90,90,90,-4.4830000000000005
UNbO3,U,Nb,cubic,-2.6319999999999997,0.521,0.662,13.425,0.0,4.064,4.064,4.064,90,90,90,3.6310000000000002
UNiO3,U,Ni,cubic,-2.136,0.652,0.8,10.883,0.0,3.789,3.789,3.789,90,90,90,0.946
UOsO3,U,Os,cubic,-1.725,0.915,0.591,12.648,0.0,3.984,3.984,3.984,90,90,90,1.0659999999999998
UPdO3,U,Pd,cubic,-1.758,0.7929999999999999,0.592,12.850999999999999,0.0,4.005,4.005,4.005,90,90,90,0.772
UPmO3,U,Pm,cubic,-2.5069999999999997,1.05,0.6,17.331,0.0,4.425,4.425,4.425,90,90,90,0.672
UPtO3,U,Pt,cubic,-1.6130000000000002,0.922,0.6,13.37,0.0,4.059,4.059,4.059,90,90,90,0.467
UPuO3,U,Pu,cubic,-2.69,0.846,1.6,17.523,0.0,4.441,4.441,4.441,90,90,90,3.167
URbO3,U,Rb,orthorhombic,-2.8339999999999996,0.28,0.2,18.845,2.31,5.387,5.747,12.174,90,90,90,-10.745999999999999
UReO3,U,Re,cubic,-1.93,0.8740000000000001,0.637,12.729000000000001,0.0,3.993,3.993,3.993,90,90,90,1.6469999999999998
URhO3,U,Rh,cubic,-1.883,0.72,0.57,12.517999999999999,0.0,3.97,3.97,3.97,90,90,90,0.54
URuO3,U,Ru,cubic,-1.9409999999999998,0.731,0.565,12.440999999999999,0.0,3.962,3.962,3.962,90,90,90,0.9620000000000001
USbO3,U,Sb,cubic,-1.742,1.0759999999999998,0.725,15.118,0.0,4.228,4.228,4.228,90,90,90,0.893
UScO3,U,Sc,orthorhombic,-3.609,0.013000000000000001,0.6,13.125,2.023,5.6,5.831,8.039,90,90,90,4.046
USiO3,U,Si,cubic,-2.4619999999999997,0.76,0.734,10.727,0.0,3.771,3.771,3.771,90,90,90,3.318
USmO3,U,Sm,cubic,-2.56,1.0090000000000001,0.6,17.051,0.0,4.401,4.401,4.401,90,90,90,2.588
USnO3,U,Sn,cubic,-1.9880000000000002,0.919,0.744,13.908,0.0,4.112,4.112,4.112,90,90,90,2.06
USrO3,U,Sr,orthorhombic,-3.326,0.161,0.4,16.725,1.939,5.809,5.967,9.651,90,90,90,-7.732
UTaO3,U,Ta,rhombohedral,-2.783,0.385,0.529,12.908,0.0,5.388,5.388,5.388,67.9,67.9,67.9,3.37
UTbO3,U,Tb,cubic,-2.6310000000000002,0.867,0.6,16.016,0.0,4.31,4.31,4.31,90,90,90,3.219
UTcO3,U,Tc,cubic,-2.1109999999999998,0.691,0.876,12.613,0.0,3.98,3.98,3.98,90,90,90,1.893
UThO3,U,Th,cubic,-2.86,0.828,0.798,19.09,0.0,4.57,4.57,4.57,90,90,90,3.054
UTiO3,U,Ti,orthorhombic,-3.2710000000000004,0.11800000000000001,0.414,12.263,0.0,5.463,5.692,7.888,90,90,90,5.162999999999999
UTlO3,U,Tl,orthorhombic,-2.238,0.507,0.4,15.585,0.0,5.939,6.187,8.483,90,90,90,-0.975
UTmO3,U,Tm,cubic,-2.966,0.7190000000000001,0.6,15.012,0.0,4.218,4.218,4.218,90,90,90,3.505
UVO3,U,V,orthorhombic,-3.176,0.02,1,12.447000000000001,1.685,5.392,5.949,7.76,90,90,90,4.461
UWO3,U,W,cubic,-2.213,0.731,0.644,12.827,0.0,4.003,4.003,4.003,90,90,90,2.108
UYO3,U,Y,cubic,-2.7910000000000004,0.8320000000000001,0.6,15.753,0.0,4.287,4.287,4.287,90,90,90,2.5540000000000003
UYbO3,U,Yb,cubic,-2.3409999999999997,1.354,0.401,14.145999999999999,0.0,4.136,4.136,4.136,90,90,90,-3.14
UZnO3,U,Zn,cubic,-2.187,0.764,0.511,11.536,0.0,3.864,3.864,3.864,90,90,90,1.141
UZrO3,U,Zr,orthorhombic,-3.182,0.21899999999999997,0.51,13.763,0.0,5.669,6.188,7.847,90,90,90,5.154
VAgO3,V,Ag,orthorhombic,-1.633,0.07400000000000001,0,13.017000000000001,1.337,5.179,5.572,9.022,90,90,90,-6.146
VAlO3,V,Al,orthorhombic,-2.863,0.085,0.4,8.937999999999999,1.896,4.981,5.175,6.935,90,90,90,-0.28
VAsO3,V,As,cubic,-1.084,0.955,0.627,11.161,0.0,3.821,3.821,3.821,90,90,90,0.308
VAuO3,V,Au,cubic,-0.187,1.444,0.524,13.074000000000002,0.0,4.028,4.028,4.028,90,90,90,-4.06
VBO3,V,B,cubic,-1.4780000000000002,1.21,0.4,7.393,0.0,3.331,3.331,3.331,90,90,90,0.401
VBaO3,V,Ba,orthorhombic,-2.7039999999999997,0.162,0.2,16.597,1.2690000000000001,5.416,5.953,10.295,90,90,90,-13.06
VBeO3,V,Be,cubic,-1.693,0.995,0.201,7.8229999999999995,0.0,3.395,3.395,3.395,90,90,90,-3.2969999999999997
VCdO3,V,Cd,orthorhombic,-1.8430000000000002,0.19,0.2,12.529000000000002,0.20600000000000002,5.335,5.416,8.671,90,90,90,-7.1370000000000005
VCeO3,V,Ce,orthorhombic,-2.861,0.298,0.4,14.417,1.39,5.738,5.883,8.542,90,90,90,-7.3870000000000005
VCoO3,V,Co,cubic,-1.09,0.915,0.394,9.588,0.0,3.633,3.633,3.633,90,90,90,-1.8530000000000002
VCrO3,V,Cr,cubic,-1.686,0.87,1,10.402999999999999,0.0,3.733,3.733,3.733,90,90,90,-0.8690000000000001
VCuO3,V,Cu,cubic,-0.8140000000000001,1.034,-0.43,9.846,0.0,3.665,3.665,3.665,90,90,90,-3.557
VDyO3,V,Dy,cubic,-1.75,1.521,0.4,15.482999999999999,0.0,4.262,4.262,4.262,90,90,90,-5.732
VErO3,V,Er,cubic,-1.8259999999999998,1.455,0.4,15.110999999999999,0.0,4.228,4.228,4.228,90,90,90,-5.367000000000001
VEuO3,V,Eu,rhombohedral,-2.807,0.293,0.2,15.081,1.985,6.269,6.269,6.269,54.3,54.3,54.3,-8.901
VGaO3,V,Ga,cubic,-1.4380000000000002,0.9279999999999999,0.4,10.615,0.0,3.758,3.758,3.758,90,90,90,-2.324
VGdO3,V,Gd,cubic,-1.746,1.5090000000000001,0.398,15.956,0.0,4.305,4.305,4.305,90,90,90,-5.305
VGeO3,V,Ge,cubic,-1.495,0.67,0.595,10.236,0.0,3.713,3.713,3.713,90,90,90,2.025
VHfO3,V,Hf,cubic,-2.528,0.68,0.6,13.25,0.0,4.046,4.046,4.046,90,90,90,3.531
VHgO3,V,Hg,orthorhombic,-1.476,0.251,0.2,13.287,0.0,5.259,5.678,8.899,90,90,90,-6.526
VHoO3,V,Ho,cubic,-1.788,1.4869999999999999,0.401,15.251,0.0,4.241,4.241,4.241,90,90,90,-5.556
VInO3,V,In,cubic,-0.9309999999999999,1.307,0.44,13.575,0.0,4.079,4.079,4.079,90,90,90,-4.8180000000000005
VIrO3,V,Ir,cubic,-0.674,1.148,0.415,11.877,0.0,3.901,3.901,3.901,90,90,90,-1.0