formula,atom a,atom b,lowest distortion,e_form,e_hull,mu_b,vpa,gap pbe,a,b,c,alpha,beta,gamma,e_form oxygen
IrBiO3,Ir,Bi,cubic,0.311,1.5519999999999998,0.53,14.855,0.0,4.204,4.204,4.204,90,90,90,-7.1370000000000005
IrCaO3,Ir,Ca,rhombohedral,-1.607,0.335,0.197,13.92,0.0,5.781,5.781,5.781,60.8,60.8,60.8,-12.475999999999999
IrCdO3,Ir,Cd,cubic,0.7809999999999999,1.9140000000000001,0.784,13.633,0.0,4.085,4.085,4.085,90,90,90,-11.289000000000001
IrCeO3,Ir,Ce,cubic,-0.255,1.984,0.819,18.352999999999998,0.0,4.511,4.511,4.511,90,90,90,-9.956
IrCoO3,Ir,Co,cubic,0.152,1.31,0.228,9.79,0.0,3.658,3.658,3.658,90,90,90,-5.721
IrCrO3,Ir,Cr,cubic,-0.47700000000000004,1.2429999999999999,0.527,10.89,0.0,3.79,3.79,3.79,90,90,90,-2.471
IrCuO3,Ir,Cu,cubic,0.431,1.392,0.111,10.019,0.0,3.686,3.686,3.686,90,90,90,-6.058
IrDyO3,Ir,Dy,cubic,-0.644,1.76,0.805,15.677999999999999,0.0,4.28,4.28,4.28,90,90,90,-8.381
IrErO3,Ir,Er,cubic,-0.7170000000000001,1.7109999999999999,0.806,15.235999999999999,0.0,4.239,4.239,4.239,90,90,90,-7.9639999999999995
IrEuO3,Ir,Eu,rhombohedral,-1.774,0.32299999999999995,0.2,15.125,0.0,6.062,6.062,6.062,58.3,58.3,58.3,-13.252
IrFeO3,Ir,Fe,cubic,-0.07200000000000001,1.2309999999999999,1.576,10.929,0.0,3.795,3.795,3.795,90,90,90,-4.803999999999999
IrGaO3,Ir,Ga,cubic,-0.21899999999999997,1.31,0.415,10.655,0.0,3.763,3.763,3.763,90,90,90,-4.314
IrGdO3,Ir,Gd,cubic,-0.563,1.8119999999999998,0.819,16.172,0.0,4.324,4.324,4.324,90,90,90,-8.807
IrGeO3,Ir,Ge,cubic,-0.26,1.193,0.608,10.544,0.0,3.75,3.75,3.75,90,90,90,-1.212
IrHfO3,Ir,Hf,cubic,-1.3840000000000001,1.238,0.607,13.331,0.0,4.055,4.055,4.055,90,90,90,-1.374
IrHgO3,Ir,Hg,cubic,1.1,1.92,0.703,14.187999999999999,0.0,4.14,4.14,4.14,90,90,90,-11.277999999999999
IrHoO3,Ir,Ho,cubic,-0.682,1.735,0.804,15.449000000000002,0.0,4.259,4.259,4.259,90,90,90,-8.17
IrInO3,Ir,In,cubic,0.209,1.61,0.802,13.785,0.0,4.1,4.1,4.1,90,90,90,-7.545
Ir2O3,Ir,Ir,cubic,0.431,1.389,0.565,11.847999999999999,0.0,3.898,3.898,3.898,90,90,90,-2.173
IrKO3,Ir,K,rhombohedral,-1.139,0.18600000000000003,0.4,18.059,0.818,6.326,6.326,6.326,60.4,60.4,60.4,-13.583
IrLaO3,Ir,La,cubic,-0.39,1.95,0.811,17.797,0.0,4.464,4.464,4.464,90,90,90,-9.607000000000001
IrLiO3,Ir,Li,orthorhombic,-1.079,0.299,-0.001,9.209,0.0,5.139,5.408,6.627,90,90,90,-7.648
IrLuO3,Ir,Lu,cubic,-0.826,1.6340000000000001,0.802,14.575999999999999,0.0,4.177,4.177,4.177,90,90,90,-7.297000000000001
IrMgO3,Ir,Mg,cubic,-0.299,1.518,0.005,10.333,0.0,3.724,3.724,3.724,90,90,90,-7.24
IrMnO3,Ir,Mn,cubic,-0.268,1.2309999999999999,1.378,10.835,0.0,3.784,3.784,3.784,90,90,90,-4.604
IrMoO3,Ir,Mo,cubic,-0.5479999999999999,1.182,0.431,11.944,0.0,3.909,3.909,3.909,90,90,90,1.436
IrNaO3,Ir,Na,rhombohedral,-1.08,0.252,0.4,14.392000000000001,0.499,5.91,5.91,5.91,59.4,59.4,59.4,-15.784
IrNbO3,Ir,Nb,cubic,-0.9840000000000001,1.158,0.428,12.698,0.0,3.989,3.989,3.989,90,90,90,3.0860000000000003
IrNdO3,Ir,Nd,cubic,-0.365,1.9240000000000002,0.815,17.452,0.0,4.435,4.435,4.435,90,90,90,-9.617
IrNiO3,Ir,Ni,cubic,0.259,1.3940000000000001,0.261,9.919,0.0,3.674,3.674,3.674,90,90,90,-3.7969999999999997
IrNpO3,Ir,Np,cubic,-0.987,1.5590000000000002,0.88,15.947000000000001,0.0,4.304,4.304,4.304,90,90,90,-3.8739999999999997
IrOsO3,Ir,Os,cubic,0.184,1.2,0.356,11.645999999999999,0.0,3.876,3.876,3.876,90,90,90,-0.972
IrPaO3,Ir,Pa,cubic,-1.1520000000000001,1.0270000000000001,0.452,16.404,0.0,4.345,4.345,4.345,90,90,90,2.8560000000000003
IrPbO3,Ir,Pb,rhombohedral,-0.7829999999999999,0.444,0.187,15.527999999999999,0.0,5.802,5.802,5.802,65.7,65.7,65.7,-7.861000000000001
IrPdO3,Ir,Pd,cubic,0.627,1.525,0.768,12.100999999999999,0.0,3.926,3.926,3.926,90,90,90,-6.252000000000001
IrPmO3,Ir,Pm,cubic,-0.423,1.8940000000000001,0.811,17.05,0.0,4.401,4.401,4.401,90,90,90,-9.414
IrPrO3,Ir,Pr,cubic,-0.314,1.97,0.815,17.851,0.0,4.469,4.469,4.469,90,90,90,-9.787
IrPtO3,Ir,Pt,cubic,0.6559999999999999,1.531,0.728,12.382,0.0,3.956,3.956,3.956,90,90,90,-2.944
IrPuO3,Ir,Pu,cubic,-0.861,1.4340000000000002,1.278,15.793,0.0,4.29,4.29,4.29,90,90,90,-4.973
IrRbO3,Ir,Rb,rhombohedral,-1.136,0.154,0.4,19.477,0.8809999999999999,6.345,6.345,6.345,63.5,63.5,63.5,-20.814
IrReO3,Ir,Re,cubic,-0.213,1.308,0.398,11.731,0.0,3.885,3.885,3.885,90,90,90,0.247
IrRhO3,Ir,Rh,cubic,0.397,1.347,0.743,11.722000000000001,0.0,3.884,3.884,3.884,90,90,90,-1.62
IrRuO3,Ir,Ru,cubic,0.168,1.247,0.32,11.548,0.0,3.865,3.865,3.865,90,90,90,-0.77
IrSbO3,Ir,Sb,cubic,-0.076,1.234,0.484,12.761,0.0,3.996,3.996,3.996,90,90,90,0.693
IrScO3,Ir,Sc,cubic,-0.919,1.464,0.8,12.862,0.0,4.006,4.006,4.006,90,90,90,-5.968999999999999
IrSiO3,Ir,Si,cubic,-0.862,1.301,0.599,9.282,0.0,3.594,3.594,3.594,90,90,90,2.294
IrSmO3,Ir,Sm,cubic,-0.457,1.8730000000000002,0.809,16.809,0.0,4.38,4.38,4.38,90,90,90,-9.274
IrSnO3,Ir,Sn,cubic,-0.20600000000000002,1.286,0.607,12.922,0.0,4.013,4.013,4.013,90,90,90,-3.179
IrSrO3,Ir,Sr,rhombohedral,-1.619,0.244,0.2,15.922,0.0,5.956,5.956,5.956,63,63,63,-14.249
IrTaO3,Ir,Ta,cubic,-1.213,1.138,0.424,12.475999999999999,0.0,3.966,3.966,3.966,90,90,90,3.661
IrTbO3,Ir,Tb,cubic,-0.473,1.786,0.807,15.915,0.0,4.301,4.301,4.301,90,90,90,-8.596
IrTcO3,Ir,Tc,cubic,-0.182,1.157,0.39,11.630999999999998,0.0,3.874,3.874,3.874,90,90,90,0.41700000000000004
IrTeO3,Ir,Te,cubic,0.247,1.3459999999999999,0.499,13.695,0.0,4.091,4.091,4.091,90,90,90,-0.855
IrThO3,Ir,Th,cubic,-1.109,1.7519999999999998,0.624,18.489,0.0,4.522,4.522,4.522,90,90,90,-4.928999999999999
IrTiO3,Ir,Ti,cubic,-1.1520000000000001,1.113,0.603,11.409,0.0,3.85,3.85,3.85,90,90,90,-1.56
IrTlO3,Ir,Tl,rhombohedral,-0.731,0.253,0.4,17.947,0.544,5.943,5.943,5.943,70.1,70.1,70.1,-10.072000000000001
IrTmO3,Ir,Tm,cubic,-0.764,1.681,0.802,14.978,0.0,4.215,4.215,4.215,90,90,90,-7.71
IrUO3,Ir,U,cubic,-1.349,1.262,0.701,15.876,0.0,4.298,4.298,4.298,90,90,90,3.247
IrVO3,Ir,V,cubic,-0.69,1.131,0.643,10.822000000000001,0.0,3.782,3.782,3.782,90,90,90,-2.37
IrWO3,Ir,W,cubic,-0.6559999999999999,1.3,0.391,11.95,0.0,3.909,3.909,3.909,90,90,90,1.469
IrYO3,Ir,Y,cubic,-0.617,1.766,0.804,15.817,0.0,4.292,4.292,4.292,90,90,90,-8.38
IrYbO3,Ir,Yb,rhombohedral,-1.7309999999999999,0.375,0.068,13.293,0.0,5.616,5.616,5.616,62.7,62.7,62.7,-12.015999999999998
IrZnO3,Ir,Zn,cubic,0.319,1.617,0.873,11.084000000000001,0.0,3.813,3.813,3.813,90,90,90,-8.033
IrZrO3,Ir,Zr,cubic,-1.1909999999999998,1.308,0.608,13.892000000000001,0.0,4.111,4.111,4.111,90,90,90,-2.392
KAcO3,K,Ac,rhombohedral,-2.0580000000000003,0.31,0,18.497,0.0,6.385,6.385,6.385,60.2,60.2,60.2,-0.44799999999999995
KAgO3,K,Ag,orthorhombic,-0.313,0.442,-,13.52,0.0,5.644,5.735,8.354,90,90,90,-1.608
KAlO3,K,Al,cubic,-1.857,0.41100000000000003,-,11.075,0.0,3.812,3.812,3.812,90,90,90,-1.4469999999999998
KAsO3,K,As,rhombohedral,-1.355,0.37200000000000005,-,11.008,0.0,5.377,5.377,5.377,60.1,60.1,60.1,0.502
KAuO3,K,Au,orthorhombic,-0.444,0.363,-,13.222999999999999,0.0,5.637,5.703,8.226,90,90,90,-1.585
KBO3,K,B,cubic,-0.648,1.4,-,8.826,0.0,3.534,3.534,3.534,90,90,90,-4.715
KBaO3,K,Ba,cubic,-1.0170000000000001,0.76,-,19.726,0.0,4.62,4.62,4.62,90,90,90,-1.6569999999999998
KBeO3,K,Be,cubic,-0.9179999999999999,0.917,-,9.916,0.0,3.674,3.674,3.674,90,90,90,-3.1239999999999997
KBiO3,K,Bi,orthorhombic,-1.3519999999999999,0.098,-,14.845,0.273,5.912,5.97,8.412,90,90,90,0.39299999999999996
KCaO3,K,Ca,cubic,-1.156,0.7709999999999999,-,17.229,0.0,4.416,4.416,4.416,90,90,90,-1.8230000000000002
KCdO3,K,Cd,cubic,-0.527,0.616,-,15.02,0.0,4.219,4.219,4.219,90,90,90,-1.4509999999999998
KCeO3,K,Ce,orthorhombic,-1.9380000000000002,0.4,0.399,18.832,0.0,6.439,6.464,9.048,90,90,90,-0.902
KCoO3,K,Co,tetragonal,-1.001,0.24600000000000002,0.885,12.307,0.0,3.685,3.685,4.531,90,90,90,-2.955
KCrO3,K,Cr,tetragonal,-1.76,0.289,0.237,13.099,0.0,3.614,3.614,5.013,90,90,90,-0.011000000000000001
KCsO3,K,Cs,cubic,-0.251,0.898,-,17.325,0.0,4.425,4.425,4.425,90,90,90,-1.19
KCuO3,K,Cu,cubic,-0.509,0.5,-,11.323,0.0,3.84,3.84,3.84,90,90,90,-1.655
KDyO3,K,Dy,cubic,-2.133,0.369,0.4,17.226,0.0,4.416,4.416,4.416,90,90,90,-0.865
KErO3,K,Er,cubic,-2.169,0.366,0.4,16.819000000000003,0.0,4.381,4.381,4.381,90,90,90,-0.7879999999999999
KEuO3,K,Eu,cubic,-1.411,0.596,0.6,18.467,0.0,4.52,4.52,4.52,90,90,90,-0.995
KFeO3,K,Fe,tetragonal,-1.252,0.193,0.691,12.312000000000001,0.0,3.677,3.677,4.554,90,90,90,-0.61
KGaO3,K,Ga,cubic,-1.227,0.41700000000000004,-,12.286,0.0,3.946,3.946,3.946,90,90,90,-1.8019999999999998
KGdO3,K,Gd,cubic,-2.094,0.38,0.4,17.680999999999997,0.0,4.455,4.455,4.455,90,90,90,-0.88
KGeO3,K,Ge,rhombohedral,-1.472,0.263,-,11.248,0.0,5.416,5.416,5.416,60.1,60.1,60.1,-0.54
KHfO3,K,Hf,orthorhombic,-2.7880000000000003,0.096,0.2,14.248,0.0,5.856,5.869,8.292,90,90,90,0.39799999999999996
KHgO3,K,Hg,cubic,-0.302,0.529,-,15.258,0.0,4.241,4.241,4.241,90,90,90,-1.42
KHoO3,K,Ho,orthorhombic,-2.1519999999999997,0.363,0.4,16.945,0.0,6.193,6.232,8.782,90,90,90,-0.846
KInO3,K,In,cubic,-1.0759999999999998,0.449,-,15.017999999999999,0.0,4.219,4.219,4.219,90,90,90,-1.395
KIrO3,K,Ir,orthorhombic,-1.133,0.192,0.155,12.069,0.0,5.521,5.575,7.842,90,90,90,1.4580000000000002
K2O3,K,K,orthorhombic,-0.8420000000000001,0.313,-,19.173,0.0,6.61,7.369,7.873,90,90,90,-10.720999999999998
KLaO3,K,La,orthorhombic,-2.065,0.371,0.4,18.346,0.0,6.372,6.394,9.005,90,90,90,-0.83
KLiO3,K,Li,cubic,-0.344,0.953,-,11.399000000000001,0.0,3.848,3.848,3.848,90,90,90,-2.728
KLuO3,K,Lu,rhombohedral,-2.221,0.337,0.4,16.121,0.0,6.084,6.084,6.084,60.5,60.5,60.5,-0.716
KMgO3,K,Mg,cubic,-1.1440000000000001,0.6829999999999999,-,12.83,0.0,4.003,4.003,4.003,90,90,90,-1.746
KMnO3,K,Mn,tetragonal,-1.465,0.196,0.4,12.669,0.0,3.653,3.653,4.747,90,90,90,-1.0270000000000001
KMoO3,K,Mo,rhombohedral,-2.247,0.032,0,12.235,0.0,5.572,5.572,5.572,60,60,60,5.02
KNaO3,K,Na,cubic,-0.069,1.113,-,15.205,0.0,4.236,4.236,4.236,90,90,90,-2.431
KNbO3,K,Nb,tetragonal,-2.697,-0.221,0,13.332,1.714,4.003,4.003,4.161,90,90,90,5.482
KNdO3,K,Nd,orthorhombic,-1.992,0.396,0.4,18.285,0.0,6.373,6.385,8.987,90,90,90,-0.889
KNiO3,K,Ni,cubic,-0.634,0.512,0.704,11.866,0.0,3.9,3.9,3.9,90,90,90,-1.415
KNpO3,K,Np,orthorhombic,-2.884,-0.142,0.4,15.98,1.8969999999999998,6.072,6.101,8.627,90,90,90,1.454
KOsO3,K,Os,cubic,-1.4669999999999999,0.015,-0.001,11.89,0.0,3.903,3.903,3.903,90,90,90,3.2939999999999996
KPaO3,K,Pa,cubic,-2.947,-0.5670000000000001,0,16.977999999999998,4.236000000000001,4.395,4.395,4.395,90,90,90,6.314
KPbO3,K,Pb,orthorhombic,-1.041,0.205,-,16.374000000000002,0.0,6.132,6.135,8.705,90,90,90,-0.9590000000000001
KPdO3,K,Pd,tetragonal,-0.6679999999999999,0.28300000000000003,-,13.255999999999998,0.0,3.878,3.878,4.407,90,90,90,-1.255
KPmO3,K,Pm,rhombohedral,-2.023,0.39299999999999996,0.4,18.067,0.0,6.286,6.286,6.286,61.3,61.3,61.3,-0.8540000000000001
KPrO3,K,Pr,orthorhombic,-1.9669999999999999,0.401,0.4,18.564,0.0,6.409,6.431,9.009,90,90,90,-0.92
KPtO3,K,Pt,orthorhombic,-0.847,0.228,0.2,12.517000000000001,0.0,5.575,5.639,7.963,90,90,90,-0.2
KPuO3,K,Pu,orthorhombic,-2.6519999999999997,-0.1,0.6,15.942,1.203,6.06,6.101,8.624,90,90,90,1.3090000000000002
KRbO3,K,Rb,orthorhombic,-1.044,0.102,-,18.489,2.246,6.635,7.351,7.581,90,90,90,-2.7939999999999996
KReO3,K,Re,cubic,-1.92,0.008,0,11.989,0.0,3.914,3.914,3.914,90,90,90,5.027
KRhO3,K,Rh,tetragonal,-1.03,0.192,0.424,12.434000000000001,0.0,3.925,3.925,4.035,90,90,90,0.41600000000000004
KRuO3,K,Ru,orthorhombic,-1.3630000000000002,0.08900000000000001,0,11.870999999999999,0.0,5.516,5.517,7.803,90,90,90,2.026
KSbO3,K,Sb,orthorhombic,-1.742,0.151,-,12.735,0.275,5.641,5.649,7.992,90,90,90,2.508
KScO3,K,Sc,cubic,-2.18,0.313,0.4,14.429,0.0,4.163,4.163,4.163,90,90,90,-0.848
KSiO3,K,Si,tetragonal,-2.178,0.306,-,12.242,0.0,3.323,3.323,5.542,90,90,90,-0.496
KSmO3,K,Sm,orthorhombic,-2.0380000000000003,0.39,0.4,17.899,0.0,6.324,6.347,8.919,90,90,90,-0.8540000000000001
KSnO3,K,Sn,rhombohedral,-1.57,0.16399999999999998,-,13.904000000000002,0.0,5.815,5.815,5.815,60,60,60,-0.076
KSrO3,K,Sr,cubic,-1.018,0.809,-,19.43,0.0,4.597,4.597,4.597,90,90,90,-2.0069999999999997
KTaO3,K,Ta,rhombohedral,-2.92,-0.38,0,12.838,2.324,5.663,5.663,5.663,60,60,60,6.626
KTbO3,K,Tb,cubic,-1.983,0.375,0.4,17.438,0.0,4.434,4.434,4.434,90,90,90,-0.8690000000000001
KTcO3,K,Tc,cubic,-1.8319999999999999,-0.048,0,11.898,0.0,3.904,3.904,3.904,90,90,90,3.877
KTeO3,K,Te,orthorhombic,-1.482,0.003,-,13.662,0.0,5.781,5.781,8.176,90,90,90,1.6840000000000002
KThO3,K,Th,orthorhombic,-2.835,0.213,0.2,18.058,0.0,6.331,6.355,8.977,90,90,90,0.358
KTiO3,K,Ti,tetragonal,-2.443,0.154,0.201,12.265,0.0,3.943,3.943,3.944,90,90,90,-0.13
KTlO3,K,Tl,orthorhombic,-0.617,0.46299999999999997,-,15.731,0.0,6.058,6.068,8.559,90,90,90,-1.5390000000000001
KTmO3,K,Tm,cubic,-2.194,0.349,0.4,16.552,0.0,4.358,4.358,4.358,90,90,90,-0.757
KUO3,K,U,orthorhombic,-3.14,-0.065,0.2,16.302,3.197,6.12,6.144,8.671,90,90,90,-11.265
KVO3,K,V,tetragonal,-2.271,0.099,0,12.542,0.284,3.685,3.685,4.618,90,90,90,2.017
KWO3,K,W,orthorhombic,-2.372,-0.004,-0.001,12.255,0.0,5.572,5.577,7.887,90,90,90,6.026
KYO3,K,Y,orthorhombic,-2.11,0.38,0.4,17.362000000000002,0.0,6.167,6.355,8.859,90,90,90,-0.871
KYbO3,K,Yb,cubic,-1.327,0.725,-,15.839,0.0,4.294,4.294,4.294,90,90,90,-1.331
KZnO3,K,Zn,cubic,-0.701,0.608,-,12.254000000000001,0.0,3.942,3.942,3.942,90,90,90,-1.732
KZrO3,K,Zr,orthorhombic,-2.639,0.12,0.2,14.879000000000001,0.0,5.941,5.955,8.412,90,90,90,0.14800000000000002
LaAcO3,La,Ac,cubic,-2.568,1.078,-0.002,20.589000000000002,0.273,4.687,4.687,4.687,90,90,90,2.449
LaAgO3,La,Ag,orthorhombic,-1.962,0.006999999999999999,0,13.645,0.0,5.635,5.994,8.08,90,90,90,0.272
LaAsO3,La,As,orthorhombic,-2.415,0.23600000000000002,0,13.681,0.0,5.658,5.954,8.122,90,90,90,3.0380000000000003
LaAuO3,La,Au,cubic,-1.614,0.5329999999999999,-0.005,14.19,0.0,4.14,4.14,4.14,90,90,90,0.235
LaBO3,La,B,cubic,-2.441,0.9159999999999999,0,9.267000000000001,2.138,3.592,3.592,3.592,90,90,90,4.68
LaBaO3,La,Ba,orthorhombic,-2.787,0.248,0.2,20.096,0.52,6.66,6.722,8.977,90,90,90,-2.741
LaBeO3,La,Be,tetragonal,-2.758,0.285,0.199,9.902000000000001,0.0,3.669,3.669,3.677,90,90,90,-0.348
LaBiO3,La,Bi,cubic,-1.9,0.693,0,17.183,0.0,4.413,4.413,4.413,90,90,90,1.98
LaCaO3,La,Ca,cubic,-2.484,0.6629999999999999,0.2,14.681,0.0,4.187,4.187,4.187,90,90,90,-1.704
LaCdO3,La,Cd,orthorhombic,-2.2359999999999998,0.115,0,14.347999999999999,0.0,5.723,6.093,8.229,90,90,90,-0.184
LaCeO3,La,Ce,cubic,-2.7,0.9159999999999999,0,18.942,0.687,4.558,4.558,4.558,90,90,90,3.0869999999999997
LaCoO3,La,Co,orthorhombic,-2.505,-0.022000000000000002,0.403,11.446,0.0,5.44,5.454,7.716,90,90,90,2.964
LaCrO3,La,Cr,orthorhombic,-3.168,-0.071,0.6,12.024000000000001,2.07,5.506,5.586,7.819,90,90,90,4.845
LaCuO3,La,Cu,orthorhombic,-2.237,0.027000000000000003,0,11.38,0.0,5.414,5.47,7.686,90,90,90,1.357
LaDyO3,La,Dy,cubic,-3.253,0.529,0,15.915,1.85,4.301,4.301,4.301,90,90,90,4.718999999999999
LaErO3,La,Er,orthorhombic,-3.7760000000000002,0.027999999999999997,0,14.809000000000001,4.586,5.832,6.04,8.409,90,90,90,4.912
LaEuO3,La,Eu,cubic,-2.492,0.723,0.137,15.833,0.0,4.294,4.294,4.294,90,90,90,-1.022
LaFeO3,La,Fe,orthorhombic,-2.755,-0.035,1,12.186,1.092,5.52,5.621,7.855,90,90,90,4.037
LaGaO3,La,Ga,orthorhombic,-2.935,-0.027999999999999997,0,11.923,3.8289999999999997,5.512,5.536,7.815,90,90,90,4.934
LaGdO3,La,Gd,cubic,-3.1489999999999996,0.604,0,16.472,1.561,4.351,4.351,4.351,90,90,90,3.005
LaGeO3,La,Ge,rhombohedral,-2.537,0.295,0,12.882,0.0,5.623,5.623,5.623,61.1,61.1,61.1,3.222
LaHfO3,La,Hf,orthorhombic,-3.4810000000000003,0.175,0,13.675,0.0,5.709,5.898,8.123,90,90,90,5.446000000000001
LaHgO3,La,Hg,orthorhombic,-1.9480000000000002,0.09,0,15.065,0.0,5.73,6.46,8.14,90,90,90,-0.136
LaHoO3,La,Ho,orthorhombic,-3.759,0.034,0,14.972999999999999,4.546,5.849,6.063,8.445,90,90,90,4.805
LaInO3,La,In,orthorhombic,-2.773,0.006,0,14.094000000000001,3.1310000000000002,5.721,5.972,8.251,90,90,90,3.397
LaIrO3,La,Ir,orthorhombic,-2.255,0.085,0,12.737,0.809,5.466,5.894,7.908,90,90,90,0.504
LaKO3,La,K,orthorhombic,-1.939,0.498,0.126,19.156,0.0,6.24,6.312,9.727,90,90,90,-3.241
La2O3,La,La,cubic,-2.825,0.888,0,19.361,0.595,4.592,4.592,4.592,90,90,90,3.112
LaLiO3,La,Li,orthorhombic,-2.263,0.275,0.4,11.446,0.349,5.296,5.689,7.598,90,90,90,-0.623
LaLuO3,La,Lu,rhombohedral,-3.782,0.055,0,14.353,4.5569999999999995,5.841,5.841,5.841,60.8,60.8,60.8,5.2379999999999995
LaMgO3,La,Mg,orthorhombic,-2.917,0.126,0.2,12.39,0.0,5.484,5.767,7.834,90,90,90,-0.44799999999999995
LaMnO3,La,Mn,orthorhombic,-2.932,0.0,0.8,12.187999999999999,0.0,5.509,5.663,7.814,90,90,90,3.9210000000000003
LaMoO3,La,Mo,orthorhombic,-2.681,0.21,0.388,13.065,0.0,5.543,5.903,7.987,90,90,90,3.435
LaNaO3,La,Na,cubic,-1.7169999999999999,0.7190000000000001,0.4,12.972999999999999,0.0,4.018,4.018,4.018,90,90,90,-1.6969999999999998
LaNbO3,La,Nb,orthorhombic,-3.0060000000000002,0.17600000000000002,0.039,13.412,0.0,5.61,5.963,8.018,90,90,90,4.563
LaNdO3,La,Nd,cubic,-2.8710000000000004,0.7959999999999999,0,17.976,1.024,4.479,4.479,4.479,90,90,90,3.701
LaNiO3,La,Ni,orthorhombic,-2.376,-0.019,0.215,11.329,0.0,5.402,5.466,7.674,90,90,90,1.465
LaOsO3,La,Os,orthorhombic,-2.209,0.256,0.093,12.602,0.0,5.345,6.023,7.829,90,90,90,1.597
LaPaO3,La,Pa,cubic,-2.6710000000000003,0.58,0.328,18.064,0.0,4.487,4.487,4.487,90,90,90,4.276
LaPbO3,La,Pb,cubic,-1.8559999999999999,0.617,0,16.312,0.0,4.337,4.337,4.337,90,90,90,1.344
LaPdO3,La,Pd,orthorhombic,-2.195,0.008,-0.001,13.027000000000001,0.0,5.592,5.914,7.879,90,90,90,0.907
LaPmO3,La,Pm,cubic,-2.955,0.7390000000000001,0,17.51,1.205,4.44,4.44,4.44,90,90,90,3.929
LaPrO3,La,Pr,cubic,-2.792,0.852,0,18.427,0.8590000000000001,4.517,4.517,4.517,90,90,90,3.411
LaPtO3,La,Pt,orthorhombic,-2.127,0.077,0,13.219000000000001,0.0,5.638,6.101,7.686,90,90,90,0.551
LaPuO3,La,Pu,cubic,-2.9539999999999997,0.7190000000000001,0.957,17.189,0.0,4.413,4.413,4.413,90,90,90,3.178
LaRbO3,La,Rb,orthorhombic,-2.186,0.239,0,19.456,1.452,6.524,6.582,9.063,90,90,90,-2.592
LaRhO3,La,Rh,orthorhombic,-2.386,-0.062,0,12.605,0.674,5.503,5.806,7.89,90,90,90,1.14
LaRuO3,La,Ru,orthorhombic,-2.396,0.04,0.196,12.562999999999999,0.0,5.453,5.85,7.876,90,90,90,2.045
LaSbO3,La,Sb,cubic,-2.075,0.622,-0.001,15.470999999999998,0.0,4.261,4.261,4.261,90,90,90,2.31
LaScO3,La,Sc,orthorhombic,-3.7889999999999997,-0.028999999999999998,0,13.241,4.099,5.653,5.799,8.078,90,90,90,5.579
LaSiO3,La,Si,cubic,-2.7510000000000003,0.596,0,11.122,0.0,3.817,3.817,3.817,90,90,90,4.551
LaSnO3,La,Sn,cubic,-2.298,0.525,0.003,14.488,0.0,4.169,4.169,4.169,90,90,90,2.9160000000000004
LaSrO3,La,Sr,cubic,-2.083,1.01,0.003,17.102999999999998,0.0,4.406,4.406,4.406,90,90,90,-2.213
LaTaO3,La,Ta,orthorhombic,-3.01,0.293,0.011,13.244000000000002,0.0,5.583,5.938,7.99,90,90,90,4.629
LaTbO3,La,Tb,cubic,-3.071,0.565,0,16.182000000000002,1.71,4.325,4.325,4.325,90,90,90,4.6
LaTcO3,La,Tc,orthorhombic,-2.531,0.09,0.392,12.754000000000001,0.0,5.497,5.861,7.918,90,90,90,2.9139999999999997
LaTeO3,La,Te,cubic,-1.7619999999999998,0.7759999999999999,0.001,15.710999999999999,0.0,4.283,4.283,4.283,90,90,90,1.895
LaThO3,La,Th,cubic,-3.077,0.703,0.124,19.038,0.0,4.566,4.566,4.566,90,90,90,3.971
LaTlO3,La,Tl,orthorhombic,-2.287,0.038,0,15.167,1.3019999999999998,5.817,6.164,8.46,90,90,90,1.2890000000000001
LaTmO3,La,Tm,orthorhombic,-3.8,0.022000000000000002,0,14.634,4.59,5.814,6.017,8.367,90,90,90,5.056
LaUO3,La,U,cubic,-2.8680000000000003,0.706,0.565,17.215,0.0,4.415,4.415,4.415,90,90,90,3.3680000000000003
LaVO3,La,V,orthorhombic,-3.248,-0.077,0.4,12.379000000000001,1.248,5.537,5.689,7.859,90,90,90,4.609
LaWO3,La,W,orthorhombic,-2.569,0.355,0,12.879000000000001,0.0,5.478,5.95,7.902,90,90,90,3.0610000000000004
LaYO3,La,Y,cubic,-3.2289999999999996,0.531,0,15.904000000000002,1.912,4.3,4.3,4.3,90,90,90,4.641
LaYbO3,La,Yb,cubic,-2.702,0.5579999999999999,0,14.344000000000001,0.0,4.155,4.155,4.155,90,90,90,-0.903
LaZnO3,La,Zn,orthorhombic,-2.4219999999999997,0.094,0,12.144,0.0,5.52,5.612,7.84,90,90,90,0.433
LaZrO3,La,Zr,orthorhombic,-3.42,0.133,0.003,14.142000000000001,0.0,5.766,5.989,8.19,90,90,90,5.093999999999999