formula,atom a,atom b,lowest distortion,e_form,e_hull,mu_b,vpa,gap pbe,a,b,c,alpha,beta,gamma,e_form oxygen
MgTiO3,Mg,Ti,orthorhombic,-3.094,0.094,0,9.849,2.296,5.044,5.28,7.396,90,90,90,3.878
MgTlO3,Mg,Tl,cubic,-0.655,1.001,-,14.323,0.0,4.153,4.153,4.153,90,90,90,-2.748
MgTmO3,Mg,Tm,cubic,-2.147,1.006,0.2,14.775,0.0,4.196,4.196,4.196,90,90,90,-2.488
MgUO3,Mg,U,orthorhombic,-3.2560000000000002,0.214,0.4,13.324000000000002,2.986,5.635,5.645,8.377,90,90,90,3.7489999999999997
MgVO3,Mg,V,cubic,-2.2359999999999998,0.501,0.201,10.565999999999999,0.0,3.752,3.752,3.752,90,90,90,2.49
MgWO3,Mg,W,cubic,-1.9509999999999998,0.604,0.001,12.082,0.0,3.924,3.924,3.924,90,90,90,3.5639999999999996
MgYO3,Mg,Y,cubic,-2.002,1.09,0.2,15.597000000000001,0.0,4.272,4.272,4.272,90,90,90,-2.8310000000000004
MgYbO3,Mg,Yb,cubic,-1.3880000000000001,1.2109999999999999,-,13.732999999999999,0.0,4.095,4.095,4.095,90,90,90,-4.027
MgZnO3,Mg,Zn,cubic,-1.062,0.7929999999999999,-,10.765999999999998,0.0,3.776,3.776,3.776,90,90,90,-2.748
MgZrO3,Mg,Zr,cubic,-2.676,0.682,0,13.812000000000001,0.843,4.103,4.103,4.103,90,90,90,2.605
MnAcO3,Mn,Ac,orthorhombic,-2.6039999999999996,0.314,0.8,15.237,0.299,5.902,5.987,8.625,90,90,90,-3.0189999999999997
MnAgO3,Mn,Ag,orthorhombic,-0.968,0.195,0.751,11.335999999999999,0.0,4.904,5.237,8.829,90,90,90,-1.7530000000000001
MnAlO3,Mn,Al,orthorhombic,-2.509,0.132,0.8,8.943,0.0,4.793,5.08,7.347,90,90,90,-0.5379999999999999
MnAsO3,Mn,As,orthorhombic,-1.546,0.218,0.982,10.630999999999998,0.0,5.204,5.403,7.562,90,90,90,1.474
MnAuO3,Mn,Au,cubic,-0.32299999999999995,0.8270000000000001,0.995,12.912,0.0,4.012,4.012,4.012,90,90,90,-1.445
MnBO3,Mn,B,cubic,-1.274,1.047,0.8,7.598,0.0,3.362,3.362,3.362,90,90,90,-1.3219999999999998
MnBaO3,Mn,Ba,orthorhombic,-2.124,0.256,0.6,16.689,0.628,5.643,6.015,9.832,90,90,90,-6.269
MnBeO3,Mn,Be,cubic,-1.4680000000000002,0.769,0.6,8.302,0.0,3.462,3.462,3.462,90,90,90,-2.9989999999999997
MnBiO3,Mn,Bi,orthorhombic,-1.5519999999999998,0.19899999999999998,0.897,13.325999999999999,0.0,5.652,5.73,8.23,90,90,90,0.414
MnCdO3,Mn,Cd,orthorhombic,-1.287,0.32799999999999996,0.6,12.1,0.0,5.332,5.436,8.349,90,90,90,-3.7569999999999997
MnCeO3,Mn,Ce,orthorhombic,-2.529,0.319,0.8,14.238,0.315,5.784,5.808,8.475,90,90,90,-3.48
MnCoO3,Mn,Co,cubic,-1.044,0.605,0.688,10.015,0.0,3.686,3.686,3.686,90,90,90,-0.239
MnCrO3,Mn,Cr,cubic,-1.739,0.511,1.4,10.557,0.0,3.751,3.751,3.751,90,90,90,0.722
MnCuO3,Mn,Cu,cubic,-0.764,0.628,0.883,10.094,0.0,3.696,3.696,3.696,90,90,90,-1.889
MnDyO3,Mn,Dy,cubic,-1.85,1.135,0.96,15.447000000000001,0.0,4.259,4.259,4.259,90,90,90,-2.742
MnErO3,Mn,Er,cubic,-1.9280000000000002,1.079,1.195,15.035,0.0,4.22,4.22,4.22,90,90,90,-2.457
MnEuO3,Mn,Eu,rhombohedral,-2.303,0.312,0.6,14.615,1.5,6.143,6.143,6.143,55.3,55.3,55.3,-4.666
MnFeO3,Mn,Fe,orthorhombic,-1.693,0.14,1.8,9.927,0.0,4.934,5.243,7.676,90,90,90,0.308
MnGaO3,Mn,Ga,cubic,-1.405,0.654,0.8,10.942,0.0,3.796,3.796,3.796,90,90,90,-1.675
MnGdO3,Mn,Gd,orthorhombic,-2.667,0.27899999999999997,0.8,12.844000000000001,0.34600000000000003,5.661,5.68,7.989,90,90,90,-2.85
MnGeO3,Mn,Ge,orthorhombic,-1.9409999999999998,0.085,1,9.776,1.382,5.09,5.237,7.334,90,90,90,3.174
MnHfO3,Mn,Hf,orthorhombic,-3.093,0.026000000000000002,1,11.554,3.3480000000000003,5.331,5.551,7.809,90,90,90,3.9189999999999996
MnHgO3,Mn,Hg,orthorhombic,-0.9390000000000001,0.293,0.744,12.283,0.0,5.098,5.361,8.988,90,90,90,-1.97
MnHoO3,Mn,Ho,cubic,-1.883,1.113,0.974,15.22,0.0,4.238,4.238,4.238,90,90,90,-2.667
MnInO3,Mn,In,cubic,-1.008,0.9329999999999999,0.898,13.61,0.0,4.083,4.083,4.083,90,90,90,-2.326
MnIrO3,Mn,Ir,cubic,-0.83,0.669,1.207,11.909,0.0,3.905,3.905,3.905,90,90,90,0.114
MnKO3,Mn,K,orthorhombic,-1.5430000000000001,0.11800000000000001,0.4,14.955,0.977,4.945,5.6,10.8,90,90,90,-5.171
MnLaO3,Mn,La,orthorhombic,-2.639,0.293,0.8,14.125,0.268,5.791,5.842,8.351,90,90,90,-3.0069999999999997
MnLiO3,Mn,Li,cubic,-0.7879999999999999,1.036,0.399,9.124,0.0,3.573,3.573,3.573,90,90,90,-4.252
MnLuO3,Mn,Lu,cubic,-2.0269999999999997,1.0070000000000001,0.799,14.489,0.0,4.169,4.169,4.169,90,90,90,-2.197
MnMgO3,Mn,Mg,cubic,-1.349,0.9470000000000001,0.6,11.13,0.0,3.818,3.818,3.818,90,90,90,-3.2510000000000003
Mn2O3,Mn,Mn,cubic,-1.578,0.439,1.627,10.335,0.0,3.725,3.725,3.725,90,90,90,0.319
MnMoO3,Mn,Mo,orthorhombic,-1.9709999999999999,0.193,1.167,10.964,0.0,5.288,5.43,7.637,90,90,90,3.603
MnNaO3,Mn,Na,orthorhombic,-1.473,0.259,0.4,12.273,0.7290000000000001,5.121,5.153,9.301,90,90,90,-3.1639999999999997
MnNbO3,Mn,Nb,orthorhombic,-2.381,0.127,1.043,11.366,0.0,5.311,5.556,7.705,90,90,90,4.4239999999999995
MnNdO3,Mn,Nd,orthorhombic,-2.5789999999999997,0.307,0.8,13.679,0.345,5.754,5.799,8.2,90,90,90,-3.216
MnNiO3,Mn,Ni,cubic,-0.893,0.703,1,9.953,0.0,3.678,3.678,3.678,90,90,90,-1.57
MnNpO3,Mn,Np,cubic,-2.162,0.879,1.577,16.315,0.0,4.337,4.337,4.337,90,90,90,2.376
MnOsO3,Mn,Os,cubic,-1.0290000000000001,0.519,1.224,11.806,0.0,3.894,3.894,3.894,90,90,90,1.2790000000000001
MnPaO3,Mn,Pa,rhombohedral,-2.66,0.013999999999999999,1.2,14.950999999999999,1.705,6.063,6.063,6.063,57.8,57.8,57.8,4.966
MnPbO3,Mn,Pb,orthorhombic,-1.476,0.15,0.998,12.685,0.0,5.532,5.661,8.101,90,90,90,0.121
MnPdO3,Mn,Pd,cubic,-0.613,0.6970000000000001,0.907,11.927,0.0,3.907,3.907,3.907,90,90,90,-1.0859999999999999
MnPmO3,Mn,Pm,orthorhombic,-2.6039999999999996,0.301,0.8,13.425999999999998,0.35700000000000004,5.688,5.724,8.248,90,90,90,-3.111
MnPrO3,Mn,Pr,orthorhombic,-2.555,0.315,0.8,13.935,0.33299999999999996,5.744,5.779,8.396,90,90,90,-3.338
MnPtO3,Mn,Pt,cubic,-0.617,0.7659999999999999,0.944,12.217,0.0,3.938,3.938,3.938,90,90,90,-1.147
MnPuO3,Mn,Pu,orthorhombic,-2.802,0.086,1.8,13.402000000000001,1.643,5.625,5.739,8.303,90,90,90,1.11
MnRbO3,Mn,Rb,cubic,0.428,2.166,0.996,15.270999999999999,0.0,4.242,4.242,4.242,90,90,90,-3.963
MnReO3,Mn,Re,orthorhombic,-1.65,0.19,1.15,10.845999999999998,0.0,5.294,5.381,7.614,90,90,90,1.851
MnRhO3,Mn,Rh,cubic,-0.875,0.614,1.264,11.725999999999999,0.0,3.885,3.885,3.885,90,90,90,0.048
MnRuO3,Mn,Ru,orthorhombic,-1.5290000000000001,0.07200000000000001,0.605,10.435,0.0,5.218,5.328,7.506,90,90,90,1.401
MnSbO3,Mn,Sb,cubic,-1.301,0.5539999999999999,1.055,13.412,0.0,4.063,4.063,4.063,90,90,90,1.874
MnScO3,Mn,Sc,cubic,-2.108,0.805,0.798,12.927,0.0,4.013,4.013,4.013,90,90,90,-1.879
MnSiO3,Mn,Si,orthorhombic,-2.487,0.22699999999999998,1,8.709,3.8510000000000004,4.928,5.026,7.033,90,90,90,5.482
MnSmO3,Mn,Sm,orthorhombic,-2.6180000000000003,0.29600000000000004,0.8,13.265,0.0,5.669,5.706,8.202,90,90,90,-3.085
MnSnO3,Mn,Sn,orthorhombic,-1.984,0.042,1,11.639000000000001,0.851,5.368,5.544,7.823,90,90,90,2.7110000000000003
MnSrO3,Mn,Sr,orthorhombic,-2.149,0.26,0.6,14.854000000000001,0.604,5.631,5.697,9.261,90,90,90,-5.9
MnTaO3,Mn,Ta,orthorhombic,-2.49,0.18,0.8,11.181,0.0,5.262,5.59,7.602,90,90,90,4.948
MnTbO3,Mn,Tb,orthorhombic,-2.552,0.272,0.8,12.685,0.245,5.646,5.656,7.944,90,90,90,-2.675
MnTcO3,Mn,Tc,orthorhombic,-1.722,0.113,1.172,10.645999999999999,0.0,5.222,5.395,7.557,90,90,90,2.2159999999999997
MnTeO3,Mn,Te,cubic,-1.004,0.6809999999999999,1.043,14.324000000000002,0.0,4.153,4.153,4.153,90,90,90,1.6540000000000001
MnThO3,Mn,Th,cubic,-2.3680000000000003,0.9890000000000001,1.008,18.631,0.0,4.533,4.533,4.533,90,90,90,2.387
MnTiO3,Mn,Ti,orthorhombic,-2.7769999999999997,0.06,1,10.264000000000001,1.3980000000000001,5.132,5.357,7.467,90,90,90,3.891
MnTlO3,Mn,Tl,rhombohedral,-1.381,0.096,0.8,12.794,0.0,6.043,7.236,7.248,55.2,30,55.3,-2.5140000000000002
MnTmO3,Mn,Tm,cubic,-1.972,1.052,0.798,14.829,0.0,4.201,4.201,4.201,90,90,90,-2.333
MnUO3,Mn,U,cubic,-2.377,0.7290000000000001,1.278,16.208,0.0,4.327,4.327,4.327,90,90,90,3.612
MnVO3,Mn,V,orthorhombic,-2.33,0.052000000000000005,1.2,10.068,0.0,5.132,5.275,7.438,90,90,90,2.7039999999999997
MnWO3,Mn,W,rhombohedral,-1.946,0.263,0.947,10.985,0.0,5.241,5.241,5.241,63.6,63.6,63.6,3.688
MnYO3,Mn,Y,cubic,-1.828,1.1320000000000001,0.8,15.647,0.0,4.277,4.277,4.277,90,90,90,-2.7089999999999996
MnYbO3,Mn,Yb,rhombohedral,-2.293,0.317,0.6,13.057,1.473,5.875,5.875,5.875,56.1,56.1,56.1,-4.328
MnZnO3,Mn,Zn,cubic,-0.867,0.843,0.844,10.931,0.0,3.795,3.795,3.795,90,90,90,-2.793
MnZrO3,Mn,Zr,orthorhombic,-2.943,0.052000000000000005,1,11.9,3.057,5.383,5.594,7.903,90,90,90,2.972
MoAcO3,Mo,Ac,rhombohedral,-2.403,0.35600000000000004,0.2,16.382,0.0,5.917,5.917,5.917,65.4,65.4,65.4,-8.478
MoAgO3,Mo,Ag,orthorhombic,-1.368,0.36200000000000004,0.002,13.694,0.0,5.563,5.64,8.729,90,90,90,-9.289
MoAlO3,Mo,Al,cubic,-1.7180000000000002,0.884,0.599,9.692,0.0,3.646,3.646,3.646,90,90,90,1.5330000000000001
MoAsO3,Mo,As,cubic,-0.39899999999999997,1.375,0.793,11.693,0.0,3.881,3.881,3.881,90,90,90,-0.34600000000000003
MoAuO3,Mo,Au,cubic,0.418,2.149,0.688,13.289000000000001,0.0,4.05,4.05,4.05,90,90,90,-8.504
MoBO3,Mo,B,cubic,-0.828,1.453,0.535,7.8260000000000005,0.0,3.395,3.395,3.395,90,90,90,1.516
MoBaO3,Mo,Ba,rhombohedral,-2.311,0.278,0,18.697,0.7879999999999999,6.254,6.254,6.254,63.7,63.7,63.7,-14.618
MoBeO3,Mo,Be,cubic,-1.3840000000000001,1.0959999999999999,0.349,7.928,0.0,3.41,3.41,3.41,90,90,90,-0.9359999999999999
MoBiO3,Mo,Bi,cubic,-0.179,1.633,0.863,15.295,0.0,4.245,4.245,4.245,90,90,90,-6.7620000000000005
MoCaO3,Mo,Ca,orthorhombic,-2.31,0.344,0.399,13.22,0.0,5.553,5.802,8.206,90,90,90,-10.717
MoCdO3,Mo,Cd,orthorhombic,-1.43,0.39299999999999996,0.4,12.720999999999998,0.0,5.578,5.698,8.005,90,90,90,-9.669
MoCeO3,Mo,Ce,rhombohedral,-2.319,0.441,0.2,15.288,0.0,5.754,5.754,5.754,66.2,66.2,66.2,-8.761000000000001
MoCoO3,Mo,Co,cubic,-0.555,1.258,0.59,9.791,0.0,3.658,3.658,3.658,90,90,90,-0.95
MoCrO3,Mo,Cr,cubic,-1.128,1.082,1.2,10.905999999999999,0.0,3.792,3.792,3.792,90,90,90,-0.14400000000000002
MoCuO3,Mo,Cu,orthorhombic,-1.422,0.312,0.186,10.635,0.0,5.221,5.254,7.754,90,90,90,-3.8360000000000003
MoDyO3,Mo,Dy,cubic,-1.1909999999999998,1.704,0.599,15.572000000000001,0.0,4.27,4.27,4.27,90,90,90,-5.636
MoErO3,Mo,Er,cubic,-1.2790000000000001,1.639,0.599,15.075999999999999,0.0,4.224,4.224,4.224,90,90,90,-5.746
MoEuO3,Mo,Eu,orthorhombic,-2.4419999999999997,0.373,0.188,13.797,0.0,5.43,6.124,8.298,90,90,90,-12.294
MoFeO3,Mo,Fe,cubic,-0.677,1.263,1.6,10.904000000000002,0.0,3.792,3.792,3.792,90,90,90,-2.265
MoGaO3,Mo,Ga,cubic,-0.9179999999999999,1.105,0.6,10.7,0.0,3.768,3.768,3.768,90,90,90,-1.156
MoGdO3,Mo,Gd,cubic,-1.095,1.785,0.604,16.124000000000002,0.0,4.32,4.32,4.32,90,90,90,-6.9639999999999995
MoGeO3,Mo,Ge,cubic,-0.7879999999999999,1.072,0.78,10.769,0.0,3.776,3.776,3.776,90,90,90,1.3530000000000002
MoHfO3,Mo,Hf,cubic,-1.8940000000000001,1.056,0.8,13.424000000000001,0.0,4.064,4.064,4.064,90,90,90,0.47
MoHgO3,Mo,Hg,cubic,0.539,2.269,0.695,14.255999999999998,0.0,4.146,4.146,4.146,90,90,90,-10.695
MoHoO3,Mo,Ho,cubic,-1.236,1.67,0.598,15.318,0.0,4.247,4.247,4.247,90,90,90,-6.047000000000001
MoInO3,Mo,In,rhombohedral,-1.338,0.57,0.582,13.082,0.0,5.705,5.705,5.705,59.8,59.8,59.8,-5.376
MoIrO3,Mo,Ir,cubic,-0.073,1.6580000000000001,0.578,12.069,0.0,3.922,3.922,3.922,90,90,90,-2.497
MoKO3,Mo,K,orthorhombic,-2.074,0.205,0.018,17.23,0.0,5.423,6.188,10.268,90,90,90,-19.535
MoLaO3,Mo,La,cubic,-0.8859999999999999,2.005,0.6,17.735,0.0,4.459,4.459,4.459,90,90,90,-8.238999999999999
MoLiO3,Mo,Li,orthorhombic,-2.056,0.266,0.027,9.258,0.0,4.76,5.048,7.706,90,90,90,-5.319
MoLuO3,Mo,Lu,cubic,-1.41,1.541,0.6,14.329,0.0,4.153,4.153,4.153,90,90,90,-4.815
MoMgO3,Mo,Mg,cubic,-1.045,1.476,0.4,10.244000000000002,0.0,3.714,3.714,3.714,90,90,90,-4.539
MoMnO3,Mo,Mn,cubic,-0.905,1.2590000000000001,1.4,10.908,0.0,3.792,3.792,3.792,90,90,90,-2.055
Mo2O3,Mo,Mo,cubic,-0.9590000000000001,0.98,0.861,12.207,0.0,3.937,3.937,3.937,90,90,90,2.276
MoNaO3,Mo,Na,orthorhombic,-1.9809999999999999,0.282,0.073,13.047,0.0,5.552,5.614,8.372,90,90,90,-13.886
MoNbO3,Mo,Nb,cubic,-1.392,0.914,0.875,12.972999999999999,0.0,4.018,4.018,4.018,90,90,90,4.1
MoNdO3,Mo,Nd,cubic,-0.868,1.955,0.583,17.452,0.0,4.435,4.435,4.435,90,90,90,-8.14
MoNiO3,Mo,Ni,cubic,-0.47100000000000003,1.335,0.8,9.941,0.0,3.677,3.677,3.677,90,90,90,-3.207
MoNpO3,Mo,Np,cubic,-1.3659999999999999,1.506,-0.446,16.413,0.0,4.346,4.346,4.346,90,90,90,-3.762
MoOsO3,Mo,Os,cubic,-0.247,1.483,0.609,11.964,0.0,3.911,3.911,3.911,90,90,90,0.001
MoPaO3,Mo,Pa,cubic,-1.551,0.9540000000000001,1,16.736,0.0,4.374,4.374,4.374,90,90,90,1.35
MoPdO3,Mo,Pd,cubic,0.039,1.77,0.601,12.130999999999998,0.0,3.929,3.929,3.929,90,90,90,-5.914
MoPmO3,Mo,Pm,cubic,-0.9329999999999999,1.875,0.6,17.05,0.0,4.401,4.401,4.401,90,90,90,-7.846
MoPrO3,Mo,Pr,cubic,-0.812,1.973,0.603,17.869,0.0,4.471,4.471,4.471,90,90,90,-8.375
MoPtO3,Mo,Pt,cubic,0.12,1.851,0.639,12.547,0.0,3.973,3.973,3.973,90,90,90,-3.673
MoRbO3,Mo,Rb,orthorhombic,-2.089,0.184,0.021,18.867,0.0,5.46,6.384,10.825,90,90,90,-20.254
MoReO3,Mo,Re,cubic,-0.597,1.208,0.862,11.994000000000002,0.0,3.914,3.914,3.914,90,90,90,1.194
MoRhO3,Mo,Rh,cubic,-0.18100000000000002,1.5490000000000002,0.53,11.805,0.0,3.894,3.894,3.894,90,90,90,-1.347
MoRuO3,Mo,Ru,cubic,-0.33899999999999997,1.392,0.477,11.755,0.0,3.888,3.888,3.888,90,90,90,0.10099999999999999
MoSbO3,Mo,Sb,cubic,-0.517,1.3030000000000002,0.893,13.415999999999999,0.0,4.063,4.063,4.063,90,90,90,0.98
MoScO3,Mo,Sc,cubic,-1.5530000000000002,1.32,0.6,12.517999999999999,0.0,3.97,3.97,3.97,90,90,90,-3.025
MoSiO3,Mo,Si,cubic,-1.3630000000000002,1.128,0.796,9.375,0.0,3.606,3.606,3.606,90,90,90,3.1830000000000003
MoSmO3,Mo,Sm,cubic,-0.972,1.869,0.599,16.797,0.0,4.379,4.379,4.379,90,90,90,-7.626
MoSnO3,Mo,Sn,orthorhombic,-1.545,0.363,0,11.997,0.0,5.47,6.511,6.737,90,90,90,1.663
MoSrO3,Mo,Sr,rhombohedral,-2.31,0.326,0,16.33,0.638,6.015,6.015,6.015,62.8,62.8,62.8,-13.854000000000001
MoTaO3,Mo,Ta,cubic,-1.5819999999999999,0.932,0.912,12.765,0.0,3.996,3.996,3.996,90,90,90,4.762
MoTbO3,Mo,Tb,cubic,-1.013,1.744,0.599,15.85,0.0,4.295,4.295,4.295,90,90,90,-6.6579999999999995
MoTcO3,Mo,Tc,cubic,-0.626,1.177,0.83,11.880999999999998,0.0,3.902,3.902,3.902,90,90,90,1.248
MoTeO3,Mo,Te,cubic,-0.22,1.51,0.875,14.311,0.0,4.152,4.152,4.152,90,90,90,-1.09
MoThO3,Mo,Th,cubic,-1.598,1.59,0.8,18.663,0.0,4.536,4.536,4.536,90,90,90,-3.025
MoTiO3,Mo,Ti,cubic,-1.6780000000000002,0.914,0.78,11.5,0.0,3.86,3.86,3.86,90,90,90,1.916
MoTlO3,Mo,Tl,orthorhombic,-1.683,0.20199999999999999,0.006,18.061,0.0,5.599,6.273,10.283,90,90,90,-9.227
MoTmO3,Mo,Tm,cubic,-1.335,1.601,0.599,14.774000000000001,0.0,4.196,4.196,4.196,90,90,90,-5.379
MoUO3,Mo,U,cubic,-1.7480000000000002,1.19,1.2,16.178,0.0,4.325,4.325,4.325,90,90,90,0.006
MoVO3,Mo,V,cubic,-1.249,1.036,1.001,10.978,0.0,3.8,3.8,3.8,90,90,90,0.96
MoWO3,Mo,W,cubic,-1.0190000000000001,0.938,0.883,12.261,0.0,3.943,3.943,3.943,90,90,90,2.596
MoYO3,Mo,Y,cubic,-1.168,1.735,0.6,15.662,0.0,4.278,4.278,4.278,90,90,90,-4.275
MoYbO3,Mo,Yb,orthorhombic,-2.45,0.308,0.398,12.85,0.0,5.502,5.784,8.076,90,90,90,-10.578
MoZnO3,Mo,Zn,cubic,-0.4,1.567,0.52,10.832,0.0,3.783,3.783,3.783,90,90,90,-5.452000000000001
MoZrO3,Mo,Zr,cubic,-1.702,1.124,0.8,13.977,0.0,4.119,4.119,4.119,90,90,90,-0.74
NaAcO3,Na,Ac,orthorhombic,-2.0180000000000002,0.35200000000000004,0.1,16.191,0.0,6.063,6.228,8.575,90,90,90,-0.778
NaAgO3,Na,Ag,cubic,-0.237,0.512,-,13.187000000000001,0.0,4.04,4.04,4.04,90,90,90,-2.055
NaAlO3,Na,Al,cubic,-1.9609999999999999,0.331,-,10.117,0.0,3.698,3.698,3.698,90,90,90,-1.2690000000000001
NaAsO3,Na,As,orthorhombic,-1.53,0.23,-,9.703,1.08,5.156,5.159,7.296,90,90,90,1.226
NaAuO3,Na,Au,orthorhombic,-0.578,0.228,-,11.449000000000002,0.0,5.357,5.589,7.649,90,90,90,-2.008
NaBO3,Na,B,cubic,-0.987,1.053,-,7.561,0.0,3.356,3.356,3.356,90,90,90,-3.806
NaBaO3,Na,Ba,cubic,-0.871,0.9329999999999999,-,19.061,0.0,4.568,4.568,4.568,90,90,90,-2.008
NaBeO3,Na,Be,cubic,-1.0959999999999999,0.7170000000000001,-,8.555,0.0,3.497,3.497,3.497,90,90,90,-2.864
NaBiO3,Na,Bi,orthorhombic,-1.4069999999999998,0.048,-,13.512,0.736,5.705,5.819,8.14,90,90,90,0.27
NaCaO3,Na,Ca,orthorhombic,-1.719,0.18600000000000003,-,13.425,0.0,5.992,6.287,7.127,90,90,90,-6.274
NaCdO3,Na,Cd,cubic,-0.445,0.6759999999999999,-,14.242,0.0,4.145,4.145,4.145,90,90,90,-4.29
NaCeO3,Na,Ce,cubic,-1.784,0.556,0.4,19.27,0.0,4.584,4.584,4.584,90,90,90,-1.5819999999999999
NaCoO3,Na,Co,orthorhombic,-1.033,0.26899999999999996,0.785,10.222999999999999,0.0,5.23,5.305,7.37,90,90,90,0.679
NaCrO3,Na,Cr,orthorhombic,-1.743,0.27,0.2,9.961,0.0,5.151,5.228,7.398,90,90,90,-12.261
NaCsO3,Na,Cs,cubic,-0.125,1.051,-,16.632,0.0,4.365,4.365,4.365,90,90,90,-1.46
NaCuO3,Na,Cu,orthorhombic,-0.569,0.439,-,10.017999999999999,0.0,5.154,5.286,7.355,90,90,90,-1.5859999999999999
NaDyO3,Na,Dy,orthorhombic,-2.314,0.191,0,13.022,2.472,6.017,6.145,7.043,90,90,90,-1.337
NaErO3,Na,Er,rhombohedral,-2.109,0.434,0.4,14.272,0.0,5.811,5.811,5.811,61.3,61.3,61.3,-1.3019999999999998
NaEuO3,Na,Eu,orthorhombic,-1.86,0.125,0.204,13.686,0.0,6.164,6.262,7.092,90,90,90,-4.835
NaFeO3,Na,Fe,cubic,-1.2990000000000002,0.183,0.896,10.453,0.0,3.739,3.739,3.739,90,90,90,-0.436
NaGaO3,Na,Ga,orthorhombic,-1.251,0.465,-,11.284,0.0,5.02,5.836,7.703,90,90,90,-2.013
NaGdO3,Na,Gd,cubic,-1.9780000000000002,0.507,0.4,17.15,0.0,4.41,4.41,4.41,90,90,90,-1.291
NaGeO3,Na,Ge,cubic,-1.561,0.254,-,10.408,0.0,3.733,3.733,3.733,90,90,90,-0.33899999999999997
NaHfO3,Na,Hf,orthorhombic,-2.7489999999999997,0.08800000000000001,0.2,12.93,0.0,5.61,5.751,8.015,90,90,90,0.008
NaHgO3,Na,Hg,cubic,-0.215,0.593,-,14.557,0.0,4.175,4.175,4.175,90,90,90,-1.944
NaHoO3,Na,Ho,orthorhombic,-2.324,0.192,0,12.936,2.546,6.024,6.133,7.003,90,90,90,-1.3319999999999999
NaInO3,Na,In,cubic,-1.002,0.5539999999999999,-,14.286,0.0,4.149,4.149,4.149,90,90,90,-1.883
NaIrO3,Na,Ir,orthorhombic,-1.266,0.066,0.013,10.72,0.0,5.267,5.398,7.541,90,90,90,1.5230000000000001
NaKO3,Na,K,cubic,0.32799999999999996,1.51,-,17.912,0.0,4.474,4.474,4.474,90,90,90,-6.683
NaLaO3,Na,La,orthorhombic,-2.306,0.13,0,14.794,2.633,6.247,6.397,7.404,90,90,90,-1.3719999999999999
NaLiO3,Na,Li,orthorhombic,-1.182,0.09300000000000001,-,9.69,1.7619999999999998,5.68,5.764,5.919,90,90,90,-3.867
NaLuO3,Na,Lu,rhombohedral,-2.162,0.39899999999999997,0.4,13.882,0.0,5.762,5.762,5.762,61.2,61.2,61.2,-1.171
NaMgO3,Na,Mg,cubic,-1.127,0.6779999999999999,-,11.912,0.0,3.905,3.905,3.905,90,90,90,-1.858
NaMnO3,Na,Mn,orthorhombic,-1.4880000000000002,0.245,0.4,10.145,0.0,5.203,5.267,7.404,90,90,90,-0.726
NaMoO3,Na,Mo,cubic,-2.251,0.013000000000000001,0,11.739,0.0,3.886,3.886,3.886,90,90,90,4.698
Na2O3,Na,Na,orthorhombic,-0.895,0.265,-,12.552999999999999,0.0,5.658,6.457,6.872,90,90,90,-10.002
NaNbO3,Na,Nb,orthorhombic,-2.6860000000000004,0.019,0,11.887,2.204,5.47,5.568,7.806,90,90,90,5.195
NaNdO3,Na,Nd,cubic,-1.8530000000000002,0.5529999999999999,0.4,18.518,0.0,4.524,4.524,4.524,90,90,90,-1.499
NaNiO3,Na,Ni,orthorhombic,-0.701,0.425,0.6,10.201,0.0,5.376,5.587,6.793,90,90,90,-1.5019999999999998
NaNpO3,Na,Np,orthorhombic,-2.8510000000000004,-0.091,0.4,13.777000000000001,1.8980000000000001,5.655,5.937,8.208,90,90,90,2.658
NaOsO3,Na,Os,orthorhombic,-1.5019999999999998,-0.021,-0.004,10.815999999999999,0.0,5.312,5.389,7.557,90,90,90,3.014
NaPaO3,Na,Pa,orthorhombic,-2.915,-0.316,0,14.555,4.349,5.794,6.01,8.359,90,90,90,5.96
NaPbO3,Na,Pb,orthorhombic,-1.065,0.18899999999999997,-,13.155999999999999,0.0,5.873,6.047,7.409,90,90,90,-1.44
NaPdO3,Na,Pd,orthorhombic,-0.809,0.18,-,10.850999999999999,0.0,5.274,5.452,7.547,90,90,90,-1.4980000000000002
NaPmO3,Na,Pm,cubic,-1.892,0.526,0.4,18.160999999999998,0.0,4.495,4.495,4.495,90,90,90,-1.436
NaPrO3,Na,Pr,cubic,-1.821,0.5489999999999999,0.4,18.837,0.0,4.55,4.55,4.55,90,90,90,-1.5390000000000001
NaPtO3,Na,Pt,orthorhombic,-1.005,0.1,0.2,10.927,0.0,5.277,5.464,7.58,90,90,90,-0.34
NaPuO3,Na,Pu,orthorhombic,-2.6310000000000002,-0.084,0.6,13.779000000000002,1.196,5.74,5.842,8.219,90,90,90,0.983
NaRbO3,Na,Rb,orthorhombic,-0.922,0.248,-,16.952,0.0,5.034,7.329,9.189,90,90,90,-11.583
NaReO3,Na,Re,cubic,-1.932,0.006999999999999999,-0.001,11.534,0.0,3.863,3.863,3.863,90,90,90,4.3389999999999995
NaRhO3,Na,Rh,orthorhombic,-1.139,0.094,0.09,10.64,0.0,5.244,5.389,7.53,90,90,90,0.41700000000000004