formula,atom a,atom b,lowest distortion,e_form,e_hull,mu_b,vpa,gap pbe,a,b,c,alpha,beta,gamma,e_form oxygen
TaMnO3,Ta,Mn,cubic,-1.071,1.599,1.164,10.902000000000001,0.0,3.792,3.792,3.792,90,90,90,-5.178999999999999
TaMoO3,Ta,Mo,cubic,-0.8740000000000001,1.64,0.52,12.056,0.0,3.921,3.921,3.921,90,90,90,-2.235
TaNaO3,Ta,Na,orthorhombic,-2.633,0.298,0,12.859000000000002,2.958,5.468,5.632,8.351,90,90,90,-11.349
TaNbO3,Ta,Nb,cubic,-1.255,1.367,0.588,12.854000000000001,0.0,4.006,4.006,4.006,90,90,90,-0.321
TaNdO3,Ta,Nd,cubic,-0.8809999999999999,2.371,0.4,17.377,0.0,4.429,4.429,4.429,90,90,90,-12.189
TaNiO3,Ta,Ni,cubic,-0.846,1.629,0.488,9.797,0.0,3.659,3.659,3.659,90,90,90,-0.846
TaNpO3,Ta,Np,rhombohedral,-2.79,0.313,0.8,15.29,0.55,5.749,5.749,5.749,66.4,66.4,66.4,-0.8109999999999999
TaOsO3,Ta,Os,cubic,-0.22399999999999998,2.141,0.238,11.821,0.0,3.895,3.895,3.895,90,90,90,-6.274
TaPaO3,Ta,Pa,cubic,-1.248,1.4880000000000002,0.771,16.707,0.0,4.371,4.371,4.371,90,90,90,0.23399999999999999
TaPbO3,Ta,Pb,rhombohedral,-1.911,0.544,0,15.337,0.0,5.603,5.603,5.603,71.4,71.4,71.4,-1.0979999999999999
TaPdO3,Ta,Pd,cubic,-0.13,2.191,0.338,12.087,0.0,3.924,3.924,3.924,90,90,90,-5.715
TaPmO3,Ta,Pm,cubic,-0.97,2.1830000000000003,0.398,16.902,0.0,4.388,4.388,4.388,90,90,90,-11.636
TaPrO3,Ta,Pr,cubic,-0.8009999999999999,2.424,0.397,17.812,0.0,4.466,4.466,4.466,90,90,90,-12.693
TaPtO3,Ta,Pt,cubic,0.037000000000000005,2.347,0.388,12.59,0.0,3.978,3.978,3.978,90,90,90,-8.016
TaPuO3,Ta,Pu,rhombohedral,-2.83,0.301,1,15.116,0.779,5.716,5.716,5.716,66.7,66.7,66.7,-8.642999999999999
TaRbO3,Ta,Rb,orthorhombic,-2.6889999999999996,0.183,0,19.597,3.593,5.93,5.984,11.045,90,90,90,-14.915999999999999
TaReO3,Ta,Re,cubic,-0.503,1.945,0.403,11.968,0.0,3.911,3.911,3.911,90,90,90,-4.977
TaRhO3,Ta,Rh,cubic,-0.31,2.037,0.304,11.667,0.0,3.878,3.878,3.878,90,90,90,-4.987
TaRuO3,Ta,Ru,cubic,-0.406,1.975,0.188,11.543,0.0,3.865,3.865,3.865,90,90,90,-4.611000000000001
TaSbO3,Ta,Sb,cubic,-0.34,2.114,0.626,13.811,0.0,4.103,4.103,4.103,90,90,90,-5.239
TaScO3,Ta,Sc,cubic,-1.73,1.5319999999999998,0.4,12.311,0.0,3.948,3.948,3.948,90,90,90,-5.103
TaSiO3,Ta,Si,cubic,-1.291,1.4869999999999999,0.518,9.427,0.0,3.612,3.612,3.612,90,90,90,1.8019999999999998
TaSmO3,Ta,Sm,cubic,-1.025,2.258,0.4,16.582,0.0,4.36,4.36,4.36,90,90,90,-11.247
TaSnO3,Ta,Sn,cubic,-0.628,1.903,0.578,13.115,0.0,4.033,4.033,4.033,90,90,90,-2.986
TaSrO3,Ta,Sr,orthorhombic,-2.801,0.365,0,15.651,0.31,5.577,6.314,8.889,90,90,90,-17.169
Ta2O3,Ta,Ta,cubic,-1.403,1.226,0.614,12.673,0.0,3.987,3.987,3.987,90,90,90,0.136
TaTbO3,Ta,Tb,cubic,-1.1079999999999999,2.084,0.399,15.49,0.0,4.263,4.263,4.263,90,90,90,-9.755
TaTcO3,Ta,Tc,cubic,-0.606,1.84,0.146,11.719000000000001,0.0,3.884,3.884,3.884,90,90,90,-4.035
TaTeO3,Ta,Te,cubic,-0.061,2.329,0.602,14.572000000000001,0.0,4.177,4.177,4.177,90,90,90,-6.409
TaThO3,Ta,Th,cubic,-1.46,1.965,0.589,18.552,0.0,4.527,4.527,4.527,90,90,90,-1.3619999999999999
TaTiO3,Ta,Ti,cubic,-1.7080000000000002,1.168,0.468,11.319,0.0,3.839,3.839,3.839,90,90,90,-3.2110000000000003
TaTlO3,Ta,Tl,orthorhombic,-2.274,0.183,0,18.317999999999998,2.48,5.884,6.333,9.831,90,90,90,-7.196000000000001
TaTmO3,Ta,Tm,cubic,-1.4609999999999999,1.8969999999999998,0.399,14.408,0.0,4.161,4.161,4.161,90,90,90,-8.045
TaUO3,Ta,U,cubic,-1.439,1.729,0.966,16.16,0.0,4.323,4.323,4.323,90,90,90,0.396
TaVO3,Ta,V,cubic,-1.347,1.3880000000000001,0.773,11.017000000000001,0.0,3.805,3.805,3.805,90,90,90,1.145
TaWO3,Ta,W,cubic,-0.8740000000000001,1.643,0.56,12.172,0.0,3.933,3.933,3.933,90,90,90,-0.91
TaYO3,Ta,Y,cubic,-1.271,2.0340000000000003,0.398,15.200999999999999,0.0,4.236,4.236,4.236,90,90,90,-9.407
TaYbO3,Ta,Yb,orthorhombic,-2.943,0.306,-0.001,12.853,0.0,5.536,5.995,7.745,90,90,90,-12.815
TaZnO3,Ta,Zn,cubic,-0.727,1.8030000000000002,0.218,10.663,0.0,3.764,3.764,3.764,90,90,90,-5.627999999999999
TaZrO3,Ta,Zr,cubic,-1.62,1.436,0.594,13.872,0.0,4.109,4.109,4.109,90,90,90,0.504
TbAcO3,Tb,Ac,cubic,-2.061,1.5090000000000001,0.001,20.243,0.0,4.66,4.66,4.66,90,90,90,0.9390000000000001
TbAgO3,Tb,Ag,cubic,-1.327,0.5660000000000001,0,12.985,0.0,4.019,4.019,4.019,90,90,90,-0.48700000000000004
TbAlO3,Tb,Al,orthorhombic,-3.448,-0.02,0,10.267000000000001,5.845,5.198,5.336,7.404,90,90,90,6.336
TbAsO3,Tb,As,cubic,-1.8019999999999998,0.748,0,12.745,0.0,3.994,3.994,3.994,90,90,90,2.202
TbAuO3,Tb,Au,cubic,-1.189,0.732,0,13.734000000000002,0.0,4.095,4.095,4.095,90,90,90,-0.603
TbBO3,Tb,B,cubic,-2.39,0.759,0,8.318,2.9610000000000003,3.465,3.465,3.465,90,90,90,5.397
TbBaO3,Tb,Ba,orthorhombic,-2.69,0.271,0.201,18.699,0.64,6.5,6.766,8.504,90,90,90,-6.725
TbBeO3,Tb,Be,tetragonal,-2.6630000000000003,0.304,0.044,9.596,0.0,3.326,3.326,4.337,90,90,90,-0.866
TbBiO3,Tb,Bi,cubic,-1.4180000000000001,1.099,0,16.631,0.0,4.365,4.365,4.365,90,90,90,0.902
TbCaO3,Tb,Ca,cubic,-2.043,1.028,0.2,13.790999999999999,0.0,4.101,4.101,4.101,90,90,90,-2.782
TbCdO3,Tb,Cd,cubic,-1.494,0.7809999999999999,0,13.689,0.0,4.091,4.091,4.091,90,90,90,-0.941
TbCeO3,Tb,Ce,cubic,-2.207,1.3330000000000002,0,18.667,0.308,4.536,4.536,4.536,90,90,90,-2.9589999999999996
TbCoO3,Tb,Co,orthorhombic,-2.398,0.009000000000000001,0.401,10.841,0.0,5.2,5.551,7.512,90,90,90,2.511
TbCrO3,Tb,Cr,orthorhombic,-3.0639999999999996,-0.043,0.6,11.209000000000001,2.475,5.286,5.578,7.603,90,90,90,4.313
TbCuO3,Tb,Cu,orthorhombic,-2.142,-0.04,0,11.072000000000001,0.0,5.23,5.858,7.228,90,90,90,0.77
TbDyO3,Tb,Dy,cubic,-2.802,0.903,0,15.489,1.746,4.263,4.263,4.263,90,90,90,1.148
TbErO3,Tb,Er,cubic,-2.9019999999999997,0.8270000000000001,0,14.97,1.8869999999999998,4.214,4.214,4.214,90,90,90,4.277
TbEuO3,Tb,Eu,cubic,-2.03,1.1079999999999999,0.108,15.402000000000001,0.0,4.254,4.254,4.254,90,90,90,-2.201
TbFeO3,Tb,Fe,orthorhombic,-2.6439999999999997,-0.039,1,11.338,1.168,5.301,5.607,7.629,90,90,90,3.264
TbGaO3,Tb,Ga,orthorhombic,-2.833,0.015,0,11.149000000000001,3.9810000000000003,5.285,5.562,7.586,90,90,90,4.521
TbGdO3,Tb,Gd,cubic,-2.688,0.9890000000000001,0,16.07,1.489,4.315,4.315,4.315,90,90,90,0.37
TbGeO3,Tb,Ge,cubic,-2.1069999999999998,0.523,0,11.618,0.0,3.873,3.873,3.873,90,90,90,2.859
TbHfO3,Tb,Hf,orthorhombic,-3.3080000000000003,0.2,0.003,12.51,0.0,5.474,6.064,7.538,90,90,90,4.5889999999999995
TbHgO3,Tb,Hg,cubic,-1.075,0.887,0,14.671,0.0,4.186,4.186,4.186,90,90,90,-0.904
TbHoO3,Tb,Ho,cubic,-2.8539999999999996,0.863,0,15.23,1.749,4.239,4.239,4.239,90,90,90,1.499
TbInO3,Tb,In,cubic,-2.046,0.657,0,13.737,1.7369999999999999,4.095,4.095,4.095,90,90,90,2.7680000000000002
TbIrO3,Tb,Ir,cubic,-1.54,0.7190000000000001,0,12.356,0.0,3.953,3.953,3.953,90,90,90,-0.7979999999999999
TbKO3,Tb,K,orthorhombic,-1.9069999999999998,0.45,0.4,18.124000000000002,0.0,5.962,6.011,10.114,90,90,90,-3.824
TbLaO3,Tb,La,cubic,-2.329,1.307,0,18.381,0.0,4.513,4.513,4.513,90,90,90,-2.6260000000000003
TbLiO3,Tb,Li,orthorhombic,-2.145,0.317,0.4,10.487,0.0,4.995,5.78,7.265,90,90,90,-1.235
TbLuO3,Tb,Lu,cubic,-3.0439999999999996,0.7170000000000001,0,14.289000000000001,2.003,4.149,4.149,4.149,90,90,90,4.647
TbMgO3,Tb,Mg,orthorhombic,-2.7880000000000003,0.18,0.2,11.503,0.0,5.371,5.728,7.477,90,90,90,-1.354
TbMnO3,Tb,Mn,orthorhombic,-2.822,0.002,0.8,11.405999999999999,0.258,5.301,5.731,7.508,90,90,90,3.52
TbMoO3,Tb,Mo,cubic,-2.173,0.583,0.004,12.366,0.0,3.954,3.954,3.954,90,90,90,1.824
TbNaO3,Tb,Na,cubic,-1.334,1.035,0.399,12.075999999999999,0.0,3.923,3.923,3.923,90,90,90,-2.714
TbNbO3,Tb,Nb,cubic,-2.497,0.5760000000000001,0.001,13.042,0.0,4.025,4.025,4.025,90,90,90,3.2089999999999996
TbNdO3,Tb,Nd,cubic,-2.388,1.202,0,17.645,0.664,4.452,4.452,4.452,90,90,90,-1.764
TbNiO3,Tb,Ni,orthorhombic,-2.269,0.008,0.199,10.630999999999998,0.0,5.191,5.512,7.43,90,90,90,1.113
TbNpO3,Tb,Np,cubic,-2.471,1.05,0.782,17.168,0.0,4.411,4.411,4.411,90,90,90,2.531
TbOsO3,Tb,Os,cubic,-1.587,0.716,0.006,12.208,0.0,3.937,3.937,3.937,90,90,90,0.19699999999999998
TbPaO3,Tb,Pa,cubic,-2.271,0.903,0.292,17.768,0.0,4.462,4.462,4.462,90,90,90,2.759
TbPbO3,Tb,Pb,cubic,-1.39,1.0070000000000001,0,15.427999999999999,0.0,4.257,4.257,4.257,90,90,90,0.578
TbPdO3,Tb,Pd,orthorhombic,-2.07,-0.03,0.005,12.007,0.0,5.4,5.895,7.543,90,90,90,-0.016
TbPmO3,Tb,Pm,cubic,-2.478,1.14,0,17.16,1.041,4.411,4.411,4.411,90,90,90,-0.382
TbPrO3,Tb,Pr,cubic,-2.3040000000000003,1.264,0,18.119,0.479,4.491,4.491,4.491,90,90,90,-1.416
TbPtO3,Tb,Pt,cubic,-1.4509999999999998,0.677,0,12.925,0.0,4.013,4.013,4.013,90,90,90,-0.46399999999999997
TbPuO3,Tb,Pu,cubic,-2.5180000000000002,1.078,0.919,16.564,0.0,4.359,4.359,4.359,90,90,90,-0.5539999999999999
TbRbO3,Tb,Rb,orthorhombic,-2.002,0.34600000000000003,0,18.423,1.287,6.215,6.263,9.466,90,90,90,-3.2939999999999996
TbReO3,Tb,Re,cubic,-1.8,0.7490000000000001,0.163,12.293,0.0,3.946,3.946,3.946,90,90,90,0.373
TbRhO3,Tb,Rh,cubic,-1.7469999999999999,0.537,0,12.011,0.0,3.916,3.916,3.916,90,90,90,-0.048
TbRuO3,Tb,Ru,cubic,-1.8019999999999998,0.56,0.125,11.999,0.0,3.915,3.915,3.915,90,90,90,0.762
TbSbO3,Tb,Sb,cubic,-1.633,0.937,-0.001,14.898,0.0,4.208,4.208,4.208,90,90,90,1.071
TbScO3,Tb,Sc,orthorhombic,-3.665,0.019,0,12.3,4.705,5.439,5.728,7.896,90,90,90,5.096
TbSiO3,Tb,Si,cubic,-2.524,0.64,0,10.048,0.0,3.69,3.69,3.69,90,90,90,4.622
TbSmO3,Tb,Sm,cubic,-2.535,1.0959999999999999,0,16.840999999999998,1.073,4.383,4.383,4.383,90,90,90,-0.748
TbSnO3,Tb,Sn,cubic,-1.9040000000000001,0.8109999999999999,0,13.819,0.0,4.103,4.103,4.103,90,90,90,2.278
TbSrO3,Tb,Sr,orthorhombic,-2.747,0.27,0.106,16.647000000000002,0.0,5.845,5.857,9.725,90,90,90,-3.53
TbTaO3,Tb,Ta,cubic,-2.574,0.617,0.001,12.83,0.0,4.003,4.003,4.003,90,90,90,3.252
Tb2O3,Tb,Tb,cubic,-2.616,0.9440000000000001,0,15.769,1.476,4.288,4.288,4.288,90,90,90,0.693
TbTcO3,Tb,Tc,cubic,-1.9769999999999999,0.568,0.314,12.175,0.0,3.934,3.934,3.934,90,90,90,1.296
TbTeO3,Tb,Te,cubic,-1.32,1.0959999999999999,0.002,15.185,0.0,4.234,4.234,4.234,90,90,90,0.9
TbThO3,Tb,Th,cubic,-2.6660000000000004,1.021,0.009,18.854,0.0,4.551,4.551,4.551,90,90,90,2.238
TbTiO3,Tb,Ti,orthorhombic,-3.326,0.015,0.2,11.554,0.0,5.318,5.678,7.652,90,90,90,4.797
TbTlO3,Tb,Tl,orthorhombic,-2.147,0.10099999999999999,0.001,14.155,1.054,5.584,5.949,8.522,90,90,90,0.612
TbTmO3,Tb,Tm,cubic,-2.963,0.7829999999999999,0,14.73,1.89,4.192,4.192,4.192,90,90,90,2.365
TbUO3,Tb,U,cubic,-2.464,1.035,0.556,16.794,0.0,4.379,4.379,4.379,90,90,90,1.95
TbVO3,Tb,V,orthorhombic,-3.1319999999999997,-0.037000000000000005,0.4,11.514000000000001,1.093,5.318,5.67,7.638,90,90,90,4.039
TbWO3,Tb,W,cubic,-2.094,0.6659999999999999,0,12.425,0.0,3.961,3.961,3.961,90,90,90,1.37
TbYO3,Tb,Y,cubic,-2.779,0.905,0,15.482999999999999,1.8130000000000002,4.262,4.262,4.262,90,90,90,1.169
TbYbO3,Tb,Yb,cubic,-2.281,0.903,0.196,13.774000000000001,0.0,4.099,4.099,4.099,90,90,90,-1.819
TbZnO3,Tb,Zn,orthorhombic,-2.311,0.129,0,11.383,0.0,5.256,5.773,7.504,90,90,90,-0.127
TbZrO3,Tb,Zr,cubic,-2.8569999999999998,0.5670000000000001,0,14.011,0.0,4.122,4.122,4.122,90,90,90,4.218999999999999
TcAcO3,Tc,Ac,rhombohedral,-2.235,0.32,0.4,16.243,0.516,5.908,5.908,5.908,65.2,65.2,65.2,-6.497000000000001
TcAgO3,Tc,Ag,tetragonal,-0.402,0.9109999999999999,0,11.448,0.0,3.33,3.33,5.162,90,90,90,-7.876
TcAlO3,Tc,Al,cubic,-1.521,0.877,0.798,9.821,0.0,3.662,3.662,3.662,90,90,90,0.406
TcAsO3,Tc,As,cubic,-0.42700000000000005,1.085,1.004,11.718,0.0,3.884,3.884,3.884,90,90,90,1.054
TcAuO3,Tc,Au,cubic,0.439,1.709,0.948,13.258,0.0,4.047,4.047,4.047,90,90,90,-6.59
TcBO3,Tc,B,cubic,-0.597,1.48,0.665,7.843,0.0,3.397,3.397,3.397,90,90,90,0.215
TcBaO3,Tc,Ba,rhombohedral,-2.006,0.304,0.2,18.189,0.0,6.173,6.173,6.173,64.3,64.3,64.3,-12.144
TcBeO3,Tc,Be,cubic,-1.058,1.149,0.471,7.976,0.0,3.416,3.416,3.416,90,90,90,-2.501
TcBiO3,Tc,Bi,cubic,-0.214,1.297,0.987,15.527999999999999,0.0,4.266,4.266,4.266,90,90,90,0.49700000000000005
TcCdO3,Tc,Cd,orthorhombic,-1.121,0.39399999999999996,0.374,12.375,0.0,5.572,5.671,7.833,90,90,90,-8.603
TcCeO3,Tc,Ce,rhombohedral,-2.14,0.386,0.4,15.498,0.354,5.933,5.933,5.933,62.2,62.2,62.2,-6.742999999999999
TcCoO3,Tc,Co,cubic,-0.368,1.15,0.751,9.859,0.0,3.667,3.667,3.667,90,90,90,-1.797
TcCrO3,Tc,Cr,cubic,-0.987,1.0190000000000001,1.399,11.009,0.0,3.804,3.804,3.804,90,90,90,-0.212
TcCuO3,Tc,Cu,orthorhombic,-1.0490000000000002,0.301,0.239,9.995,0.0,5.272,5.283,7.178,90,90,90,-4.069
TcDyO3,Tc,Dy,cubic,-1.127,1.5630000000000002,1.174,15.535,0.0,4.267,4.267,4.267,90,90,90,-5.504
TcErO3,Tc,Er,cubic,-1.19,1.524,1.005,15.116,0.0,4.228,4.228,4.228,90,90,90,-5.164
TcEuO3,Tc,Eu,rhombohedral,-2.167,0.36200000000000004,0.2,14.492,0.0,5.75,5.75,5.75,63.5,63.5,63.5,-10.407
TcFeO3,Tc,Fe,cubic,-0.574,1.054,1.795,11.036,0.0,3.807,3.807,3.807,90,90,90,-1.97
TcGaO3,Tc,Ga,cubic,-0.745,1.07,0.8,10.886,0.0,3.79,3.79,3.79,90,90,90,-1.578
TcGdO3,Tc,Gd,cubic,-1.064,1.598,1.19,16.122,0.0,4.32,4.32,4.32,90,90,90,-5.761
TcGeO3,Tc,Ge,cubic,-0.7909999999999999,0.852,0.996,10.762,0.0,3.775,3.775,3.775,90,90,90,2.263
TcHfO3,Tc,Hf,cubic,-1.925,0.888,1,13.507,0.925,4.072,4.072,4.072,90,90,90,1.949
TcHgO3,Tc,Hg,orthorhombic,-1.045,0.225,0.063,17.162,0.0,5.579,6.22,9.891,90,90,90,-8.7
TcHoO3,Tc,Ho,cubic,-1.158,1.544,1.141,15.312000000000001,0.0,4.246,4.246,4.246,90,90,90,-5.353
TcInO3,Tc,In,cubic,-0.28,1.4069999999999998,0.861,13.742,0.0,4.096,4.096,4.096,90,90,90,-4.734
TcIrO3,Tc,Ir,cubic,-0.06,1.28,0.785,12.103,0.0,3.926,3.926,3.926,90,90,90,0.35200000000000004
TcKO3,Tc,K,orthorhombic,-1.685,0.147,0.202,16.608,0.0,5.249,6.066,10.432,90,90,90,-12.599
TcLaO3,Tc,La,rhombohedral,-2.237,0.384,0.4,15.148,0.32299999999999995,5.756,5.756,5.756,65.7,65.7,65.7,-6.403
TcLiO3,Tc,Li,orthorhombic,-1.6569999999999998,0.19,0.003,9.255,0.0,4.781,5.006,7.734,90,90,90,-6.483
TcLuO3,Tc,Lu,cubic,-1.3019999999999998,1.444,0.798,14.614,0.0,4.181,4.181,4.181,90,90,90,-4.449
TcMgO3,Tc,Mg,cubic,-0.782,1.4169999999999998,0.596,10.540999999999999,0.0,3.749,3.749,3.749,90,90,90,-5.266
TcMnO3,Tc,Mn,cubic,-0.7909999999999999,1.043,1.6,10.948,0.0,3.797,3.797,3.797,90,90,90,-1.296
TcMoO3,Tc,Mo,cubic,-0.972,0.831,0.891,12.171,0.0,3.933,3.933,3.933,90,90,90,3.431
TcNaO3,Tc,Na,orthorhombic,-1.5830000000000002,0.261,0.278,12.66,0.0,5.42,5.599,8.344,90,90,90,-12.735
TcNbO3,Tc,Nb,cubic,-1.396,0.841,0.875,12.895999999999999,0.0,4.01,4.01,4.01,90,90,90,4.084
TcNdO3,Tc,Nd,cubic,-0.883,1.693,1.201,17.367,0.0,4.428,4.428,4.428,90,90,90,-6.439
TcNpO3,Tc,Np,cubic,-1.357,1.38,1.47,16.322,0.0,4.338,4.338,4.338,90,90,90,-2.154
TcOsO3,Tc,Os,cubic,-0.263,1.1059999999999999,0.67,11.944,0.0,3.909,3.909,3.909,90,90,90,0.9159999999999999
TcPaO3,Tc,Pa,cubic,-1.4680000000000002,0.9009999999999999,0.879,16.628,0.0,4.365,4.365,4.365,90,90,90,4.073
TcPdO3,Tc,Pd,cubic,0.128,1.409,0.863,12.148,0.0,3.931,3.931,3.931,90,90,90,-4.531000000000001
TcPmO3,Tc,Pm,cubic,-0.938,1.665,1.199,17.004,0.0,4.397,4.397,4.397,90,90,90,-6.252999999999999
TcPrO3,Tc,Pr,cubic,-0.835,1.719,1.201,17.717,0.0,4.458,4.458,4.458,90,90,90,-6.587000000000001
TcPtO3,Tc,Pt,cubic,0.154,1.4240000000000002,0.895,12.524000000000001,0.0,3.971,3.971,3.971,90,90,90,-1.3530000000000002
TcPuO3,Tc,Pu,cubic,-0.982,1.599,0.736,16.202,0.0,4.327,4.327,4.327,90,90,90,-5.615
TcRbO3,Tc,Rb,orthorhombic,-1.703,0.11699999999999999,0.2,18.037,0.0,5.19,6.226,11.163,90,90,90,-18.167
TcReO3,Tc,Re,cubic,-0.612,0.9229999999999999,0.833,11.994000000000002,0.0,3.914,3.914,3.914,90,90,90,2.227
TcRhO3,Tc,Rh,cubic,-0.11900000000000001,1.212,0.727,11.908,0.0,3.905,3.905,3.905,90,90,90,-2.31
TcRuO3,Tc,Ru,cubic,-0.29600000000000004,1.104,1.01,11.855,0.0,3.899,3.899,3.899,90,90,90,1.7269999999999999
TcSbO3,Tc,Sb,cubic,-0.53,1.025,0.941,13.5,0.0,4.072,4.072,4.072,90,90,90,2.076
TcScO3,Tc,Sc,cubic,-1.409,1.26,0.799,12.796,0.0,4,4,4,90,90,90,-3.031
TcSiO3,Tc,Si,cubic,-1.367,0.987,1,9.477,0.0,3.619,3.619,3.619,90,90,90,4.624
TcSmO3,Tc,Sm,cubic,-0.9690000000000001,1.6469999999999998,1.194,16.8,0.0,4.38,4.38,4.38,90,90,90,-6.107
TcSnO3,Tc,Sn,cubic,-0.7559999999999999,0.927,1,13.115,0.5710000000000001,4.033,4.033,4.033,90,90,90,2.883
TcSrO3,Tc,Sr,rhombohedral,-2.028,0.267,0.2,16.585,0.0,6.245,6.245,6.245,58.4,58.4,58.4,-12.187000000000001
TcTaO3,Tc,Ta,cubic,-1.579,0.867,0.848,12.659,0.0,3.985,3.985,3.985,90,90,90,4.418
TcTbO3,Tc,Tb,cubic,-0.9640000000000001,1.581,1.199,15.814,0.0,4.292,4.292,4.292,90,90,90,-5.648
Tc2O3,Tc,Tc,cubic,-0.634,0.897,0.802,11.877,0.0,3.901,3.901,3.901,90,90,90,2.454
TcTeO3,Tc,Te,cubic,-0.242,1.168,0.956,14.445,0.0,4.165,4.165,4.165,90,90,90,1.1909999999999998
TcThO3,Tc,Th,cubic,-1.642,1.41,1.007,18.745,0.0,4.542,4.542,4.542,90,90,90,-1.3259999999999998
TcTiO3,Tc,Ti,cubic,-1.681,0.775,1,11.572000000000001,0.562,3.868,3.868,3.868,90,90,90,1.36
TcTlO3,Tc,Tl,orthorhombic,-1.284,0.179,0.22,17.253,0.0,5.492,5.946,10.567,90,90,90,-7.439
TcTmO3,Tc,Tm,cubic,-1.237,1.494,0.91,15.023,0.0,4.219,4.219,4.219,90,90,90,-4.907
TcUO3,Tc,U,cubic,-1.541,1.261,1.171,19.000999999999998,0.0,4.563,4.563,4.563,90,90,90,-0.303
TcVO3,Tc,V,cubic,-1.206,0.8740000000000001,1.192,11.127,0.0,3.817,3.817,3.817,90,90,90,0.505
TcWO3,Tc,W,cubic,-1.022,0.934,0.859,12.19,0.0,3.935,3.935,3.935,90,90,90,3.392
TcYO3,Tc,Y,cubic,-1.091,1.579,1.107,15.853,0.0,4.296,4.296,4.296,90,90,90,-5.568
TcYbO3,Tc,Yb,orthorhombic,-2.156,0.345,0.325,12.456,0.0,5.481,5.802,7.834,90,90,90,-9.763
TcZnO3,Tc,Zn,cubic,-0.20199999999999999,1.4780000000000002,0.778,10.967,0.0,3.799,3.799,3.799,90,90,90,-5.568
TcZrO3,Tc,Zr,cubic,-1.736,0.9540000000000001,1,14.06,0.841,4.127,4.127,4.127,90,90,90,3.573
TeAcO3,Te,Ac,cubic,-1.138,1.236,0.008,19.929000000000002,0.0,4.636,4.636,4.636,90,90,90,-4.092
TeAgO3,Te,Ag,orthorhombic,-0.828,0.147,-,13.484000000000002,0.0,5.65,6.099,7.827,90,90,90,-3.908
TeAlO3,Te,Al,orthorhombic,-1.869,0.348,-,10.707,0.0,5.331,5.341,7.521,90,90,90,2.575
TeAsO3,Te,As,cubic,-0.523,0.785,-,12.585,0.0,3.978,3.978,3.978,90,90,90,-0.792
TeAuO3,Te,Au,cubic,0.136,1.028,-,13.841,0.0,4.106,4.106,4.106,90,90,90,-0.374
TeBO3,Te,B,cubic,-0.659,1.238,-,8.683,0.0,3.515,3.515,3.515,90,90,90,0.384
TeBaO3,Te,Ba,orthorhombic,-2.151,0.034,-,19.713,3.553,6.303,6.869,9.105,90,90,90,-11.292
TeBeO3,Te,Be,cubic,-1.247,0.7190000000000001,-,8.771,0.0,3.526,3.526,3.526,90,90,90,0.8590000000000001
TeBiO3,Te,Bi,cubic,-0.43700000000000006,0.9309999999999999,-,15.991,0.0,4.308,4.308,4.308,90,90,90,-1.84
TeCaO3,Te,Ca,cubic,-0.6809999999999999,1.5490000000000002,-,14.675999999999998,0.0,4.187,4.187,4.187,90,90,90,-8.469
TeCdO3,Te,Cd,cubic,-0.091,1.268,-,14.175999999999998,0.0,4.138,4.138,4.138,90,90,90,-6.257000000000001
TeCeO3,Te,Ce,cubic,-1.107,1.3130000000000002,0,19.055999999999997,0.0,4.567,4.567,4.567,90,90,90,-7.4270000000000005
TeCoO3,Te,Co,cubic,-0.626,0.652,-0.009,10.514000000000001,0.0,3.746,3.746,3.746,90,90,90,1.913
TeCrO3,Te,Cr,cubic,-1.264,0.561,0.58,11.61,0.0,3.872,3.872,3.872,90,90,90,2.3480000000000003
TeCsO3,Te,Cs,orthorhombic,-1.3880000000000001,0.17600000000000002,-,23.232,0.302,6.235,6.401,11.642,90,90,90,-11.315999999999999
TeCuO3,Te,Cu,cubic,-0.39299999999999996,0.7090000000000001,-,10.84,0.0,3.784,3.784,3.784,90,90,90,-1.402
TeDyO3,Te,Dy,cubic,-1.5030000000000001,1.054,0,16.180999999999997,0.0,4.325,4.325,4.325,90,90,90,-5.127999999999999
TeErO3,Te,Er,cubic,-1.5759999999999998,0.998,0,15.675,0.0,4.28,4.28,4.28,90,90,90,-4.578
TeEuO3,Te,Eu,orthorhombic,-2.343,-0.162,0,15.717,3.278,5.827,6.439,8.377,90,90,90,-9.104
TeFeO3,Te,Fe,cubic,-0.8079999999999999,0.615,0.951,11.754000000000001,0.0,3.888,3.888,3.888,90,90,90,-0.992
TeGaO3,Te,Ga,cubic,-1.0290000000000001,0.606,-,11.446,0.0,3.854,3.854,3.854,90,90,90,0.27699999999999997
TeGdO3,Te,Gd,cubic,-1.42,1.126,0.005,16.745,0.0,4.375,4.375,4.375,90,90,90,-5.705
TeGeO3,Te,Ge,cubic,-0.851,0.6759999999999999,-,11.607000000000001,0.0,3.872,3.872,3.872,90,90,90,1.8659999999999999
TeHfO3,Te,Hf,cubic,-2.079,0.614,0,14.002,0.0,4.122,4.122,4.122,90,90,90,2.379
TeHgO3,Te,Hg,orthorhombic,-0.966,0.013999999999999999,-,15.597999999999999,2.147,6.005,6.232,8.336,90,90,90,-6.062
TeHoO3,Te,Ho,cubic,-1.541,1.025,0,15.929,0.0,4.302,4.302,4.302,90,90,90,-4.832
TeInO3,Te,In,cubic,-0.653,0.882,-,14.253,0.0,4.146,4.146,4.146,90,90,90,-3.312