formula,atom a,atom b,lowest distortion,e_form,e_hull,mu_b,vpa,gap pbe,a,b,c,alpha,beta,gamma,e_form oxygen
PrVO3,Pr,V,orthorhombic,-3.18,-0.077,0.4,12.254000000000001,1.3330000000000002,5.482,5.721,7.814,90,90,90,4.458
PrWO3,Pr,W,orthorhombic,-2.469,0.386,0.001,12.729000000000001,0.0,5.371,6.049,7.836,90,90,90,2.545
PrYO3,Pr,Y,cubic,-3.1,0.593,0,15.797,2.003,4.291,4.291,4.291,90,90,90,4.454
PrYbO3,Pr,Yb,cubic,-2.5839999999999996,0.608,0.064,14.208,0.0,4.142,4.142,4.142,90,90,90,-1.033
PrZnO3,Pr,Zn,orthorhombic,-2.3609999999999998,0.087,0,12.082,0.0,5.437,5.724,7.766,90,90,90,0.43
PrZrO3,Pr,Zr,orthorhombic,-3.32,0.152,0.167,13.899000000000001,0.0,5.681,6.093,8.031,90,90,90,4.757
PtAcO3,Pt,Ac,orthorhombic,-1.849,0.289,0,15.994000000000002,0.0,5.963,6.43,8.342,90,90,90,-7.392
PtAgO3,Pt,Ag,cubic,0.763,1.3130000000000002,0.536,12.835,0.0,4.004,4.004,4.004,90,90,90,-7.468999999999999
PtAlO3,Pt,Al,cubic,-1.139,0.841,0.307,9.896,0.0,3.671,3.671,3.671,90,90,90,-1.32
PtAsO3,Pt,As,cubic,-0.136,0.941,0.322,11.036,0.0,3.807,3.807,3.807,90,90,90,0.004
PtAuO3,Pt,Au,cubic,0.7659999999999999,1.304,0.469,13.190999999999999,0.0,4.04,4.04,4.04,90,90,90,-5.476
PtBO3,Pt,B,cubic,-0.159,1.5,0.086,8.0,0.0,3.42,3.42,3.42,90,90,90,-1.088
PtBaO3,Pt,Ba,orthorhombic,-1.432,0.17300000000000001,0,18.95,0.88,6.334,6.488,9.222,90,90,90,-12.328
PtBeO3,Pt,Be,cubic,-0.5539999999999999,1.077,0.001,8.347999999999999,0.0,3.469,3.469,3.469,90,90,90,-3.844
PtBiO3,Pt,Bi,cubic,0.027000000000000003,1.157,0.286,14.589,0.0,4.178,4.178,4.178,90,90,90,-4.385
PtCaO3,Pt,Ca,rhombohedral,-1.463,0.38,-0.001,14.440999999999999,0.544,6.031,6.031,6.031,57,57,57,-10.427
PtCdO3,Pt,Cd,cubic,0.584,1.5490000000000002,0.591,13.814,0.0,4.103,4.103,4.103,90,90,90,-9.196
PtCeO3,Pt,Ce,cubic,-0.525,1.584,0.607,18.596,0.0,4.53,4.53,4.53,90,90,90,-7.928999999999999
PtCoO3,Pt,Co,cubic,0.018000000000000002,1.042,0.387,10.077,0.0,3.694,3.694,3.694,90,90,90,-4.105
PtCrO3,Pt,Cr,cubic,-0.6920000000000001,0.897,0.003,10.807,0.0,3.781,3.781,3.781,90,90,90,-0.677
PtCuO3,Pt,Cu,cubic,0.3,1.067,0.378,10.365,0.0,3.728,3.728,3.728,90,90,90,-4.74
PtDyO3,Pt,Dy,cubic,-0.88,1.393,0.603,16.025,0.0,4.311,4.311,4.311,90,90,90,-6.575
PtErO3,Pt,Er,cubic,-0.9470000000000001,1.349,0.6,15.557,0.0,4.269,4.269,4.269,90,90,90,-6.18
PtEuO3,Pt,Eu,rhombohedral,-1.5959999999999999,0.368,0,14.649000000000001,0.47100000000000003,5.816,5.816,5.816,62.4,62.4,62.4,-10.615
PtFeO3,Pt,Fe,cubic,-0.244,0.9279999999999999,1.357,10.994000000000002,0.0,3.802,3.802,3.802,90,90,90,-3.036
PtGaO3,Pt,Ga,cubic,-0.389,1.01,0.592,11.079,0.0,3.812,3.812,3.812,90,90,90,-3.1919999999999997
PtGdO3,Pt,Gd,cubic,-0.804,1.44,0.602,16.496,0.0,4.353,4.353,4.353,90,90,90,-6.96
PtGeO3,Pt,Ge,cubic,-0.466,0.904,0.402,10.536,0.0,3.749,3.749,3.749,90,90,90,0.429
PtHfO3,Pt,Hf,cubic,-1.611,0.929,0.402,13.415999999999999,0.0,4.063,4.063,4.063,90,90,90,-0.7040000000000001
PtHgO3,Pt,Hg,cubic,0.889,1.516,0.481,14.225,0.0,4.143,4.143,4.143,90,90,90,-8.92
PtHoO3,Pt,Ho,cubic,-0.914,1.371,0.6,15.784,0.0,4.289,4.289,4.289,90,90,90,-6.385
PtInO3,Pt,In,cubic,0.005,1.275,0.601,13.966,0.0,4.118,4.118,4.118,90,90,90,-5.84
PtIrO3,Pt,Ir,cubic,0.158,1.034,0.263,11.800999999999998,0.0,3.893,3.893,3.893,90,90,90,-0.424
PtKO3,Pt,K,orthorhombic,-0.8170000000000001,0.257,0.2,18.886,0.276,6.311,6.337,9.445,90,90,90,-10.895999999999999
PtLaO3,Pt,La,cubic,-0.6409999999999999,1.564,0.303,17.902,0.0,4.473,4.473,4.473,90,90,90,-7.72
PtLiO3,Pt,Li,cubic,0.179,1.334,-0.216,8.821,0.0,3.533,3.533,3.533,90,90,90,-7.777
PtLuO3,Pt,Lu,cubic,-1.0490000000000002,1.28,0.601,14.841,0.0,4.202,4.202,4.202,90,90,90,-5.579
PtMgO3,Pt,Mg,cubic,-0.384,1.239,0.292,10.844000000000001,0.0,3.785,3.785,3.785,90,90,90,-6.597
PtMnO3,Pt,Mn,cubic,-0.436,0.9470000000000001,1.137,10.859000000000002,0.0,3.787,3.787,3.787,90,90,90,-2.9560000000000004
PtMoO3,Pt,Mo,cubic,-0.8590000000000001,0.871,0.137,11.937000000000001,0.0,3.908,3.908,3.908,90,90,90,2.928
PtNaO3,Pt,Na,rhombohedral,-0.7490000000000001,0.35600000000000004,0.2,13.769,0.0,5.798,5.798,5.798,60,60,60,-10.347999999999999
PtNbO3,Pt,Nb,cubic,-1.294,0.807,0.207,12.725,0.0,3.992,3.992,3.992,90,90,90,1.507
PtNdO3,Pt,Nd,cubic,-0.623,1.6219999999999999,0.606,17.7,0.0,4.456,4.456,4.456,90,90,90,-7.6579999999999995
PtNiO3,Pt,Ni,cubic,0.151,1.821,0.405,10.141,0.0,3.701,3.701,3.701,90,90,90,-4.414
PtNpO3,Pt,Np,cubic,-1.2009999999999998,1.262,0.19,18.836,0.0,4.55,4.55,4.55,90,90,90,-2.614
PtOsO3,Pt,Os,cubic,-0.139,0.8420000000000001,0.039,11.610999999999999,0.0,3.872,3.872,3.872,90,90,90,2.026
PtPaO3,Pt,Pa,cubic,-1.507,0.589,0.212,16.4,0.0,4.344,4.344,4.344,90,90,90,1.262
PtPbO3,Pt,Pb,rhombohedral,-0.623,0.386,0,15.464,0.0,5.888,5.888,5.888,63.2,63.2,63.2,-5.21
PtPdO3,Pt,Pd,cubic,0.44,1.1440000000000001,0.569,12.177999999999999,0.0,3.934,3.934,3.934,90,90,90,-3.29
PtPmO3,Pt,Pm,cubic,-0.6759999999999999,1.511,0.605,17.29,0.0,4.422,4.422,4.422,90,90,90,-7.492000000000001
PtPrO3,Pt,Pr,cubic,-0.578,1.558,0.605,18.107,0.0,4.49,4.49,4.49,90,90,90,-7.795
PtPuO3,Pt,Pu,cubic,-1.197,0.996,0.388,15.714,0.0,4.283,4.283,4.283,90,90,90,-2.125
PtRbO3,Pt,Rb,orthorhombic,-0.8190000000000001,0.213,0.2,21.019000000000002,0.0,6.436,6.599,9.897,90,90,90,-15.058
PtReO3,Pt,Re,cubic,-0.552,0.968,0.047,11.697000000000001,0.0,3.882,3.882,3.882,90,90,90,3.267
PtRhO3,Pt,Rh,cubic,0.171,1.03,0.493,11.749,0.0,3.887,3.887,3.887,90,90,90,0.183
PtRuO3,Pt,Ru,cubic,-0.105,0.892,0.075,11.515999999999998,0.0,3.862,3.862,3.862,90,90,90,1.5959999999999999
PtSbO3,Pt,Sb,cubic,-0.386,0.8420000000000001,0.246,12.614,0.0,3.98,3.98,3.98,90,90,90,1.165
PtScO3,Pt,Sc,cubic,-1.1159999999999999,1.136,0.599,13.047,0.0,4.026,4.026,4.026,90,90,90,-4.4
PtSiO3,Pt,Si,cubic,-1.065,1.016,0.4,9.309,0.0,3.597,3.597,3.597,90,90,90,1.734
PtSmO3,Pt,Sm,cubic,-0.705,1.493,0.599,17.067,0.0,4.403,4.403,4.403,90,90,90,-7.37
PtSnO3,Pt,Sn,cubic,-0.433,0.976,0.401,13.004000000000001,0.0,4.021,4.021,4.021,90,90,90,-1.317
PtSrO3,Pt,Sr,rhombohedral,-1.45,0.258,0,16.180999999999997,0.7929999999999999,6.063,6.063,6.063,61.2,61.2,61.2,-11.565999999999999
PtTaO3,Pt,Ta,cubic,-1.535,0.774,0.207,12.514000000000001,0.0,3.97,3.97,3.97,90,90,90,2.354
PtTbO3,Pt,Tb,cubic,-0.7120000000000001,1.416,0.602,16.265,0.0,4.333,4.333,4.333,90,90,90,-6.76
PtTcO3,Pt,Tc,cubic,-0.491,0.779,-0.008,11.602,0.0,3.871,3.871,3.871,90,90,90,2.557
PtTeO3,Pt,Te,cubic,-0.061,0.956,0.235,13.399000000000001,0.0,4.061,4.061,4.061,90,90,90,-0.076
PtThO3,Pt,Th,cubic,-1.411,1.368,0.406,18.35,0.0,4.51,4.51,4.51,90,90,90,-3.568
PtTiO3,Pt,Ti,cubic,-1.3530000000000002,0.83,0.4,11.491,0.0,3.859,3.859,3.859,90,90,90,-0.195
PtTlO3,Pt,Tl,cubic,0.599,1.527,0.515,14.842,0.0,4.202,4.202,4.202,90,90,90,-7.655
PtTmO3,Pt,Tm,cubic,-0.992,1.3219999999999998,0.601,15.274000000000001,0.0,4.243,4.243,4.243,90,90,90,-5.956
PtUO3,Pt,U,cubic,-1.75,0.785,-0.023,15.81,0.0,4.292,4.292,4.292,90,90,90,1.9709999999999999
PtVO3,Pt,V,cubic,-0.9079999999999999,0.831,0.09,10.825999999999999,0.0,3.783,3.783,3.783,90,90,90,-0.29600000000000004
PtWO3,Pt,W,cubic,-1.0,0.956,0.109,11.948,0.0,3.909,3.909,3.909,90,90,90,3.677
PtYO3,Pt,Y,cubic,-0.857,1.395,0.602,16.194000000000003,0.0,4.326,4.326,4.326,90,90,90,-6.524
PtYbO3,Pt,Yb,orthorhombic,-1.599,0.381,0,12.427999999999999,0.574,5.204,5.605,8.522,90,90,90,-9.65
PtZnO3,Pt,Zn,cubic,0.158,1.263,0.684,11.249,0.0,3.831,3.831,3.831,90,90,90,-6.585
PtZrO3,Pt,Zr,cubic,-1.423,0.9940000000000001,0.402,13.994000000000002,0.0,4.121,4.121,4.121,90,90,90,-1.454
PuAlO3,Pu,Al,orthorhombic,-3.522,-0.073,1,10.595999999999998,3.199,5.307,5.329,7.493,90,90,90,4.571000000000001
PuBeO3,Pu,Be,orthorhombic,-2.9410000000000003,0.20199999999999999,0.8,9.218,1.431,5.047,5.068,7.207,90,90,90,1.85
PuHfO3,Pu,Hf,orthorhombic,-3.577,-0.033,1.2,13.513,0.775,5.721,5.789,8.161,90,90,90,3.9810000000000003
PuMgO3,Pu,Mg,orthorhombic,-3.148,-0.013000000000000001,0.8,11.539000000000001,1.607,5.332,5.673,7.629,90,90,90,-0.7140000000000001
PuMoO3,Pu,Mo,orthorhombic,-2.6069999999999998,0.179,1.002,12.505999999999998,0.0,5.443,5.879,7.817,90,90,90,3.94
PuPmO3,Pu,Pm,cubic,-2.6289999999999996,1.025,1.025,17.704,0.405,4.457,4.457,4.457,90,90,90,-1.198
PuSbO3,Pu,Sb,cubic,-1.915,0.6920000000000001,1.151,14.979000000000001,0.0,4.215,4.215,4.215,90,90,90,0.475
PuTaO3,Pu,Ta,orthorhombic,-3.05,0.08199999999999999,1.149,13.127,0.0,5.677,5.683,8.137,90,90,90,4.928999999999999
PuTcO3,Pu,Tc,rhombohedral,-2.403,0.179,1.117,12.357999999999999,0.0,5.391,5.391,5.391,65.3,65.3,65.3,1.436
PuTeO3,Pu,Te,cubic,-1.645,0.7759999999999999,1.183,15.466,0.0,4.26,4.26,4.26,90,90,90,0.542
PuWO3,Pu,W,cubic,-2.49,0.306,1.188,12.841,0.0,4.004,4.004,4.004,90,90,90,3.86
PuYbO3,Pu,Yb,cubic,-2.39,1.079,0.952,14.050999999999998,0.0,4.126,4.126,4.126,90,90,90,-2.625
PuZnO3,Pu,Zn,cubic,-2.147,0.469,0.893,11.515999999999998,0.0,3.862,3.862,3.862,90,90,90,-0.405
PuZrO3,Pu,Zr,orthorhombic,-3.44,0.02,1.2,13.845,0.423,5.747,5.879,8.195,90,90,90,3.634
RbAcO3,Rb,Ac,cubic,-2.0580000000000003,0.3,0.001,19.179000000000002,0.0,4.577,4.577,4.577,90,90,90,-0.358
RbAgO3,Rb,Ag,tetragonal,-0.251,0.491,-,14.302999999999999,0.0,4.128,4.128,4.197,90,90,90,-1.6980000000000002
RbAlO3,Rb,Al,cubic,-1.714,0.528,-,11.748,0.0,3.887,3.887,3.887,90,90,90,-1.8630000000000002
RbAsO3,Rb,As,tetragonal,-1.367,0.36200000000000004,-,13.11,0.0,3.709,3.709,4.765,90,90,90,-0.287
RbAuO3,Rb,Au,orthorhombic,-0.364,0.449,-,14.084000000000001,0.0,5.671,5.673,8.756,90,90,90,-1.526
RbBO3,Rb,B,cubic,-0.39899999999999997,1.6369999999999998,-,9.579,0.0,3.632,3.632,3.632,90,90,90,-5.122000000000001
RbBaO3,Rb,Ba,cubic,-1.034,0.718,-,20.076,0.0,4.647,4.647,4.647,90,90,90,-1.581
RbBeO3,Rb,Be,cubic,-0.763,1.06,-,10.758,0.0,3.775,3.775,3.775,90,90,90,-3.4819999999999998
RbBiO3,Rb,Bi,cubic,-1.3019999999999998,0.121,-,15.651,0.0,4.277,4.277,4.277,90,90,90,0.222
RbCaO3,Rb,Ca,cubic,-1.158,0.7559999999999999,-,17.796,0.0,4.464,4.464,4.464,90,90,90,-1.7590000000000001
RbCdO3,Rb,Cd,cubic,-0.502,0.629,-,15.673,0.0,4.279,4.279,4.279,90,90,90,-1.5230000000000001
RbCeO3,Rb,Ce,orthorhombic,-1.939,0.39,0.4,20.143,0.0,6.568,6.582,9.318,90,90,90,-0.755
RbCoO3,Rb,Co,cubic,-0.851,0.36700000000000005,0.94,12.085999999999999,0.0,3.924,3.924,3.924,90,90,90,0.19899999999999998
RbCrO3,Rb,Cr,cubic,-1.5090000000000001,0.537,0.2,11.14,0.0,3.819,3.819,3.819,90,90,90,-0.7140000000000001
RbCsO3,Rb,Cs,cubic,-0.253,0.879,-,17.848,0.0,4.469,4.469,4.469,90,90,90,-1.17
RbCuO3,Rb,Cu,cubic,-0.40399999999999997,0.595,-,12.376,0.0,3.955,3.955,3.955,90,90,90,-2.068
RbDyO3,Rb,Dy,rhombohedral,-2.127,0.366,0.4,17.726,0.0,6.282,6.282,6.282,60.5,60.5,60.5,-0.784
RbErO3,Rb,Er,orthorhombic,-2.1590000000000003,0.358,0.4,17.311,0.0,6.243,6.267,8.849,90,90,90,-0.7040000000000001
RbEuO3,Rb,Eu,cubic,-1.421,0.574,0.6,18.872,0.0,4.553,4.553,4.553,90,90,90,-0.885
RbFeO3,Rb,Fe,tetragonal,-1.209,0.2,0.687,13.765,0.0,3.682,3.682,5.078,90,90,90,-1.062
RbGaO3,Rb,Ga,rhombohedral,-1.131,0.494,-,12.878,0.0,5.664,5.664,5.664,60.1,60.1,60.1,-2.042
RbGdO3,Rb,Gd,cubic,-2.092,0.373,0.4,18.145,0.0,4.493,4.493,4.493,90,90,90,-0.79
RbGeO3,Rb,Ge,orthorhombic,-1.3619999999999999,0.34600000000000003,-,13.524000000000001,0.0,5.957,5.957,7.622,90,90,90,-1.102
RbHfO3,Rb,Hf,cubic,-2.727,0.057,0.2,14.655,0.0,4.185,4.185,4.185,90,90,90,0.35
RbHgO3,Rb,Hg,cubic,-0.276,0.5429999999999999,-,15.787,0.0,4.29,4.29,4.29,90,90,90,-1.4609999999999999
RbHoO3,Rb,Ho,rhombohedral,-2.1430000000000002,0.36200000000000004,0.4,17.517,0.0,6.246,6.246,6.246,60.7,60.7,60.7,-0.738
RbInO3,Rb,In,orthorhombic,-1.041,0.45299999999999996,-,15.58,0.0,6.04,6.042,8.539,90,90,90,-1.454
RbIrO3,Rb,Ir,rhombohedral,-1.034,0.256,0.268,12.613,0.0,5.625,5.625,5.625,60.1,60.1,60.1,1.078
RbKO3,Rb,K,orthorhombic,-1.053,0.09300000000000001,-,18.194000000000003,2.126,6.893,7.076,7.459,90,90,90,-10.19
RbLaO3,Rb,La,orthorhombic,-2.0669999999999997,0.358,0.4,19.406,0.0,6.49,6.505,9.193,90,90,90,-0.73
RbLiO3,Rb,Li,cubic,-0.271,1.013,-,12.464,0.0,3.965,3.965,3.965,90,90,90,-2.935
RbLuO3,Rb,Lu,tetragonal,-2.207,0.34299999999999997,0.387,16.615,0.0,4.36,4.365,4.365,90,90,90,-0.66
RbMgO3,Rb,Mg,cubic,-1.09,0.725,-,13.700999999999999,0.0,4.092,4.092,4.092,90,90,90,-1.889
RbMnO3,Rb,Mn,tetragonal,-1.445,0.293,0.4,14.447000000000001,0.0,3.64,3.64,5.452,90,90,90,-1.514
RbMoO3,Rb,Mo,rhombohedral,-2.1430000000000002,0.13,0,12.655999999999999,0.0,5.636,5.636,5.636,60,60,60,4.668
RbNaO3,Rb,Na,orthorhombic,-1.0490000000000002,0.12,-,15.265,2.093,5.854,7.058,7.39,90,90,90,-2.37
RbNbO3,Rb,Nb,tetragonal,-2.612,0.062,0,13.561,1.587,4.036,4.036,4.162,90,90,90,5.22
RbNdO3,Rb,Nd,cubic,-1.996,0.38299999999999995,0.4,19.465999999999998,0.0,4.6,4.6,4.6,90,90,90,-0.741
RbNiO3,Rb,Ni,cubic,-0.5479999999999999,0.585,0.755,12.757,0.0,3.996,3.996,3.996,90,90,90,-1.599
RbNpO3,Rb,Np,orthorhombic,-2.8569999999999998,-0.15,0.4,16.464000000000002,1.899,6.148,6.15,8.71,90,90,90,1.6780000000000002
RbOsO3,Rb,Os,cubic,-1.359,0.107,0,12.307,0.0,3.948,3.948,3.948,90,90,90,2.78
RbPaO3,Rb,Pa,orthorhombic,-2.927,-0.5429999999999999,0,17.243,3.98,6.248,6.249,8.833,90,90,90,6.242000000000001
RbPbO3,Rb,Pb,cubic,-1.0090000000000001,0.217,-,16.45,0.0,4.349,4.349,4.349,90,90,90,-0.958
RbPdO3,Rb,Pd,tetragonal,-0.647,0.249,-,15.405,0.0,3.843,3.843,5.214,90,90,90,-1.294
RbPmO3,Rb,Pm,cubic,-2.0269999999999997,0.38,0.4,19.055999999999997,0.0,4.567,4.567,4.567,90,90,90,-0.75
RbPrO3,Rb,Pr,cubic,-1.969,0.387,0.4,19.81,0.0,4.627,4.627,4.627,90,90,90,-0.782
RbPtO3,Rb,Pt,tetragonal,-0.757,0.275,0.199,14.405,0.0,3.911,3.911,4.709,90,90,90,-0.38299999999999995
RbPuO3,Rb,Pu,orthorhombic,-2.6289999999999996,-0.10300000000000001,0.6,16.48,1.002,6.151,6.154,8.707,90,90,90,1.2770000000000001
Rb2O3,Rb,Rb,cubic,0.12300000000000001,1.261,-,19.305999999999997,0.0,4.587,4.587,4.587,90,90,90,-2.63
RbReO3,Rb,Re,cubic,-1.807,0.115,0,12.383,0.0,3.956,3.956,3.956,90,90,90,4.572
RbRhO3,Rb,Rh,tetragonal,-0.992,0.192,0.397,14.963,0.0,3.834,3.834,5.09,90,90,90,0.14
RbRuO3,Rb,Ru,cubic,-1.265,0.18899999999999997,0.004,12.332,0.0,3.951,3.951,3.951,90,90,90,1.633
RbSbO3,Rb,Sb,tetragonal,-1.659,0.19399999999999998,-,16.604,0.0,3.763,3.763,5.864,90,90,90,1.916
RbScO3,Rb,Sc,cubic,-2.136,0.336,0.399,14.952,0.0,4.213,4.213,4.213,90,90,90,-0.889
RbSiO3,Rb,Si,cubic,-1.735,0.748,-,10.464,0.0,3.74,3.74,3.74,90,90,90,-1.34
RbSmO3,Rb,Sm,cubic,-2.041,0.37799999999999995,0.4,18.79,0.0,4.546,4.546,4.546,90,90,90,-0.755
RbSrO3,Rb,Sr,cubic,-1.038,0.7759999999999999,-,20.058,0.0,4.646,4.646,4.646,90,90,90,-1.8159999999999998
RbTaO3,Rb,Ta,tetragonal,-2.824,0.048,0,13.367,2.228,4.027,4.027,4.121,90,90,90,6.335
RbTbO3,Rb,Tb,rhombohedral,-1.979,0.37,0.4,17.947,0.0,6.318,6.318,6.318,60.3,60.3,60.3,-0.757
RbTcO3,Rb,Tc,cubic,-1.724,0.095,-0.001,12.341,0.0,3.952,3.952,3.952,90,90,90,3.403
RbTeO3,Rb,Te,cubic,-1.41,0.063,-,14.130999999999998,0.0,4.134,4.134,4.134,90,90,90,1.4080000000000001
RbThO3,Rb,Th,cubic,-2.8310000000000004,0.192,0.193,19.014,0.0,4.564,4.564,4.564,90,90,90,0.483
RbTiO3,Rb,Ti,tetragonal,-2.375,0.195,0.199,14.325,0.0,3.888,3.888,4.739,90,90,90,-0.395
RbTlO3,Rb,Tl,rhombohedral,-0.597,0.457,-,16.369,0.0,6.137,6.137,6.137,60.1,60.1,60.1,-1.528
RbTmO3,Rb,Tm,rhombohedral,-2.181,0.354,0.4,17.035999999999998,0.0,6.2,6.2,6.2,60.5,60.5,60.5,-0.698
RbUO3,Rb,U,rhombohedral,-3.114,-0.053,0.2,16.684,2.986,6.179,6.179,6.179,60,60,60,4.513
RbVO3,Rb,V,tetragonal,-2.23,0.139,0,13.884,0.39,3.692,3.692,5.092,90,90,90,1.402
RbWO3,Rb,W,orthorhombic,-2.262,0.115,-0.001,12.654000000000002,0.0,5.632,5.636,7.973,90,90,90,5.767
RbYO3,Rb,Y,orthorhombic,-2.1069999999999998,0.366,0.4,17.984,0.0,6.299,6.366,8.97,90,90,90,-0.7879999999999999
RbYbO3,Rb,Yb,cubic,-1.3159999999999998,0.7240000000000001,-,16.528,0.0,4.356,4.356,4.356,90,90,90,-1.393
RbZnO3,Rb,Zn,cubic,-0.625,0.6709999999999999,-,13.106,0.0,4.032,4.032,4.032,90,90,90,-1.9909999999999999
RbZrO3,Rb,Zr,cubic,-2.593,0.071,0.2,15.275,0.0,4.243,4.243,4.243,90,90,90,0.129
ReAcO3,Re,Ac,cubic,-0.321,2.237,1.05,19.192,0.0,4.578,4.578,4.578,90,90,90,-9.834
ReAgO3,Re,Ag,cubic,0.863,2.384,0.855,12.798,0.0,4,4,4,90,90,90,-11.335
ReAlO3,Re,Al,cubic,-1.143,1.258,0.769,9.817,0.0,3.661,3.661,3.661,90,90,90,-0.142
ReAsO3,Re,As,cubic,0.099,1.619,1.006,11.82,0.0,3.895,3.895,3.895,90,90,90,-0.677
ReAuO3,Re,Au,cubic,0.9109999999999999,2.431,0.911,13.217,0.0,4.043,4.043,4.043,90,90,90,-10.174
ReBO3,Re,B,cubic,-0.225,1.855,0.452,7.795,0.0,3.39,3.39,3.39,90,90,90,-0.38299999999999995
ReBaO3,Re,Ba,rhombohedral,-2.039,0.293,0.2,18.491,0.0,6.202,6.202,6.202,64.4,64.4,64.4,-16.108
ReBeO3,Re,Be,cubic,-0.8340000000000001,1.3769999999999998,0.347,7.89,0.0,3.404,3.404,3.404,90,90,90,-1.923
ReBiO3,Re,Bi,cubic,0.27699999999999997,1.8230000000000002,1.046,15.507,0.0,4.264,4.264,4.264,90,90,90,-7.977
ReCaO3,Re,Ca,rhombohedral,-2.022,0.336,0.2,14.732999999999999,0.0,6.03,6.03,6.03,57.8,57.8,57.8,-13.338
ReCdO3,Re,Cd,rhombohedral,-1.104,0.41700000000000004,0.2,13.533,0.0,5.439,5.439,5.439,69,69,69,-11.737
ReCeO3,Re,Ce,cubic,-0.273,2.256,0.796,18.147000000000002,0.0,4.494,4.494,4.494,90,90,90,-10.385
ReCoO3,Re,Co,cubic,0.006,1.5290000000000001,0.767,9.833,0.0,3.663,3.663,3.663,90,90,90,-5.095
ReCrO3,Re,Cr,cubic,-0.575,1.4340000000000002,1.399,11.036,0.0,3.807,3.807,3.807,90,90,90,-2.512
ReCuO3,Re,Cu,cubic,0.264,1.785,0.733,10.15,0.0,3.702,3.702,3.702,90,90,90,-6.222
ReDyO3,Re,Dy,cubic,-0.674,2.02,0.797,15.606,0.0,4.273,4.273,4.273,90,90,90,-8.509
ReErO3,Re,Er,cubic,-0.757,1.96,0.802,15.132,0.0,4.23,4.23,4.23,90,90,90,-7.945
ReEuO3,Re,Eu,rhombohedral,-2.168,0.282,0.2,15.139000000000001,0.0,6.015,6.015,6.015,59.3,59.3,59.3,-14.217
ReFeO3,Re,Fe,cubic,-0.135,1.4969999999999999,1.795,11.05,0.0,3.809,3.809,3.809,90,90,90,-4.592
ReGaO3,Re,Ga,cubic,-0.364,1.455,0.799,10.862,0.0,3.787,3.787,3.787,90,90,90,-3.09
ReGdO3,Re,Gd,cubic,-0.583,2.131,0.905,16.101,0.0,4.318,4.318,4.318,90,90,90,-9.058
ReGeO3,Re,Ge,cubic,-0.265,1.381,0.982,10.95,0.0,3.797,3.797,3.797,90,90,90,0.643
ReHfO3,Re,Hf,cubic,-1.415,1.401,1,13.548,0.0,4.076,4.076,4.076,90,90,90,-1.23
ReHgO3,Re,Hg,cubic,1.0290000000000001,2.55,0.918,14.270999999999999,0.0,4.148,4.148,4.148,90,90,90,-12.37
ReHoO3,Re,Ho,cubic,-0.716,2.022,0.797,15.354000000000001,0.0,4.25,4.25,4.25,90,90,90,-8.228
ReInO3,Re,In,cubic,0.138,1.828,0.816,13.704,0.0,4.092,4.092,4.092,90,90,90,-7.296
ReIrO3,Re,Ir,cubic,0.441,1.962,0.783,12.174000000000001,0.0,3.934,3.934,3.934,90,90,90,-4.745
ReKO3,Re,K,rhombohedral,-1.7180000000000002,0.21,0,18.357,1.6230000000000002,6.323,6.323,6.323,61.2,61.2,61.2,-10.915999999999999
ReLaO3,Re,La,cubic,-0.425,2.307,0.794,17.678,0.0,4.455,4.455,4.455,90,90,90,-9.884
ReLiO3,Re,Li,orthorhombic,-1.694,0.294,0,9.395,0.0,4.789,5.019,7.817,90,90,90,-6.902
ReLuO3,Re,Lu,cubic,-0.882,1.868,0.8,14.329,0.0,4.153,4.153,4.153,90,90,90,-7.068
ReMgO3,Re,Mg,cubic,-0.505,1.6980000000000002,0.567,10.241,0.0,3.713,3.713,3.713,90,90,90,-6.0889999999999995
ReMnO3,Re,Mn,cubic,-0.36200000000000004,1.4780000000000002,1.598,11.052,0.0,3.809,3.809,3.809,90,90,90,-4.334
ReMoO3,Re,Mo,cubic,-0.446,1.359,0.957,12.312000000000001,0.0,3.948,3.948,3.948,90,90,90,-0.7509999999999999
ReNaO3,Re,Na,rhombohedral,-1.642,0.297,0,14.517999999999999,0.856,5.93,5.93,5.93,59.3,59.3,59.3,-15.373
ReNbO3,Re,Nb,cubic,-0.8809999999999999,1.358,0.96,13.058,0.0,4.027,4.027,4.027,90,90,90,1.3030000000000002
ReNdO3,Re,Nd,cubic,-0.384,2.204,0.801,17.328,0.0,4.425,4.425,4.425,90,90,90,-9.992
ReNiO3,Re,Ni,cubic,0.087,1.608,0.972,10.01,0.0,3.685,3.685,3.685,90,90,90,-4.162
ReNpO3,Re,Np,cubic,-0.9009999999999999,1.837,1.586,16.583,0.0,4.361,4.361,4.361,90,90,90,0.63
ReOsO3,Re,Os,cubic,0.262,1.7830000000000001,0.706,11.977,0.0,3.912,3.912,3.912,90,90,90,-3.7439999999999998
RePaO3,Re,Pa,cubic,-1.082,1.29,1.184,17.011,0.0,4.398,4.398,4.398,90,90,90,3.658
RePbO3,Re,Pb,rhombohedral,-1.2229999999999999,0.33299999999999996,0.2,15.885,0.0,5.768,5.768,5.768,68.1,68.1,68.1,-9.107999999999999
RePdO3,Re,Pd,cubic,0.563,2.084,0.832,12.140999999999998,0.0,3.93,3.93,3.93,90,90,90,-3.925
RePmO3,Re,Pm,cubic,-0.434,2.173,0.942,16.928,0.0,4.391,4.391,4.391,90,90,90,-9.841000000000001