formula,atom a,atom b,lowest distortion,e_form,e_hull,mu_b,vpa,gap pbe,a,b,c,alpha,beta,gamma,e_form oxygen
CuAgO3,Cu,Ag,orthorhombic,-0.23,0.22399999999999998,-,10.505999999999998,0.0,4.947,5.214,8.146,90,90,90,-3.4389999999999996
CuAlO3,Cu,Al,cubic,-1.3980000000000001,0.557,-,9.647,0.0,3.64,3.64,3.64,90,90,90,-2.208
CuAsO3,Cu,As,rhombohedral,-1.028,0.154,-,9.505,0.0,5.167,5.167,5.167,58.9,58.9,58.9,0.91
CuAuO3,Cu,Au,cubic,0.382,0.845,-,12.838,0.0,4.004,4.004,4.004,90,90,90,-1.702
CuBO3,Cu,B,cubic,-0.524,1.1179999999999999,-,7.313,0.0,3.319,3.319,3.319,90,90,90,-3.221
CuBaO3,Cu,Ba,orthorhombic,-1.435,0.159,-,15.514000000000001,0.0,5.484,6.298,8.984,90,90,90,-8.107999999999999
CuBeO3,Cu,Be,cubic,-0.649,0.86,-,7.822,0.0,3.394,3.394,3.394,90,90,90,-3.966
CuBiO3,Cu,Bi,rhombohedral,-0.9990000000000001,0.095,-,12.822000000000001,0.0,5.752,5.752,5.752,57.9,57.9,57.9,-0.242
CuCdO3,Cu,Cd,cubic,0.28600000000000003,1.103,-,13.619000000000002,0.0,4.084,4.084,4.084,90,90,90,-5.395
CuCeO3,Cu,Ce,rhombohedral,-1.953,0.204,0.4,15.972999999999999,0.46399999999999997,6.703,6.703,6.703,49.4,49.4,49.4,-4.235
CuCoO3,Cu,Co,cubic,-0.389,0.56,0.75,9.845,0.0,3.665,3.665,3.665,90,90,90,-1.005
CuCrO3,Cu,Cr,cubic,-1.078,0.52,0.2,10.174,0.0,3.705,3.705,3.705,90,90,90,-0.457
CuCsO3,Cu,Cs,cubic,0.6779999999999999,1.6769999999999998,-,16.147000000000002,0.0,4.322,4.322,4.322,90,90,90,-2.165
Cu2O3,Cu,Cu,cubic,0.04,0.685,-,9.94,0.0,3.677,3.677,3.677,90,90,90,-3.2960000000000003
CuDyO3,Cu,Dy,rhombohedral,-2.062,0.267,0.4,13.329,0.373,6.017,6.017,6.017,54.2,54.2,54.2,-3.6660000000000004
CuErO3,Cu,Er,cubic,-1.258,1.09,-0.016,15.677999999999999,0.0,4.28,4.28,4.28,90,90,90,-4.064
CuEuO3,Cu,Eu,orthorhombic,-1.7380000000000002,0.10400000000000001,0.2,12.732999999999999,0.0,4.838,5.894,8.931,90,90,90,-6.968999999999999
CuFeO3,Cu,Fe,cubic,-0.649,0.508,0.959,10.270999999999999,0.0,3.717,3.717,3.717,90,90,90,-1.5119999999999998
CuGaO3,Cu,Ga,cubic,-0.625,0.748,-,10.950999999999999,0.0,3.797,3.797,3.797,90,90,90,-3.4410000000000003
CuGdO3,Cu,Gd,rhombohedral,-2.036,0.271,0.4,13.667,0.342,6.05,6.05,6.05,54.5,54.5,54.5,-4.248
CuGeO3,Cu,Ge,cubic,-0.9109999999999999,0.545,-,10.115,0.0,3.698,3.698,3.698,90,90,90,-0.446
CuHfO3,Cu,Hf,cubic,-2.0269999999999997,0.599,0.201,13.388,0.0,4.06,4.06,4.06,90,90,90,-0.5920000000000001
CuHgO3,Cu,Hg,orthorhombic,-0.195,0.309,-,11.6,0.0,5.176,5.352,8.375,90,90,90,-4.205
CuHoO3,Cu,Ho,rhombohedral,-2.075,0.263,0.399,13.217,0.384,6.023,6.023,6.023,53.8,53.8,53.8,-3.5380000000000003
CuInO3,Cu,In,cubic,-0.28,0.9640000000000001,-,13.835,0.0,4.105,4.105,4.105,90,90,90,-4.021
CuIrO3,Cu,Ir,cubic,-0.389,0.5720000000000001,0.248,11.437999999999999,0.0,3.853,3.853,3.853,90,90,90,0.8440000000000001
CuKO3,Cu,K,cubic,1.129,2.138,-,16.91,0.0,4.389,4.389,4.389,90,90,90,-4.542
CuLaO3,Cu,La,rhombohedral,-2.025,0.239,0.4,15.024000000000001,0.263,6.195,6.195,6.195,55.4,55.4,55.4,-3.569
CuLiO3,Cu,Li,cubic,0.142,1.197,-,8.729,0.0,3.521,3.521,3.521,90,90,90,-7.167999999999999
CuLuO3,Cu,Lu,cubic,-1.3359999999999999,0.991,-0.005,15.015,0.0,4.219,4.219,4.219,90,90,90,-3.845
CuMgO3,Cu,Mg,cubic,-0.519,0.9990000000000001,-,11.107000000000001,0.0,3.815,3.815,3.815,90,90,90,-4.654
CuMnO3,Cu,Mn,cubic,-0.835,0.5579999999999999,0.4,10.248,0.0,3.714,3.714,3.714,90,90,90,-1.681
CuMoO3,Cu,Mo,rhombohedral,-1.645,0.08900000000000001,0,10.565,0.0,5.484,5.484,5.484,55.9,55.9,55.9,3.985
CuNaO3,Cu,Na,cubic,0.7440000000000001,1.7519999999999998,-,12.732000000000001,0.0,3.993,3.993,3.993,90,90,90,-11.78
CuNbO3,Cu,Nb,rhombohedral,-2.121,0.066,0,11.120999999999999,0.787,5.59,5.59,5.59,55.7,55.7,55.7,4.362
CuNdO3,Cu,Nd,rhombohedral,-1.9609999999999999,0.298,0.4,14.573,0.35600000000000004,6.164,6.164,6.164,54.8,54.8,54.8,-3.862
CuNiO3,Cu,Ni,cubic,-0.121,0.698,0.558,9.833,0.0,3.663,3.663,3.663,90,90,90,-2.679
CuNpO3,Cu,Np,cubic,-1.931,0.618,0.389,15.267999999999999,0.0,4.242,4.242,4.242,90,90,90,2.687
CuOsO3,Cu,Os,rhombohedral,-1.0,0.045,0.001,10.191,0.0,5.277,5.277,5.277,59.1,59.1,59.1,2.299
CuPaO3,Cu,Pa,rhombohedral,-2.425,-0.243,0,13.659,2.633,5.994,5.994,5.994,55.6,55.6,55.6,4.128
CuPbO3,Cu,Pb,rhombohedral,-0.8270000000000001,0.16399999999999998,-,12.845,0.0,5.834,5.834,5.834,56.3,56.3,56.3,-2.508
CuPdO3,Cu,Pd,cubic,0.086,0.6990000000000001,-,11.833,0.0,3.897,3.897,3.897,90,90,90,-2.63
CuPmO3,Cu,Pm,rhombohedral,-1.98,0.22399999999999998,0.4,14.195,0.366,6.115,6.115,6.115,54.8,54.8,54.8,-3.8280000000000003
CuPrO3,Cu,Pr,rhombohedral,-1.9380000000000002,0.23399999999999999,0.4,14.773,0.342,6.179,6.179,6.179,55.1,55.1,55.1,-3.905
CuPtO3,Cu,Pt,cubic,-0.034,0.733,0.318,11.993,0.0,3.914,3.914,3.914,90,90,90,-0.639
CuPuO3,Cu,Pu,cubic,-1.756,0.523,0.601,15.125,0.8009999999999999,4.229,4.229,4.229,90,90,90,0.726
CuRbO3,Cu,Rb,cubic,1.095,2.094,-,15.595,0.0,4.272,4.272,4.272,90,90,90,-14.335999999999999
CuReO3,Cu,Re,rhombohedral,-1.324,0.196,0,10.363,0.0,5.38,5.38,5.38,57.4,57.4,57.4,3.638
CuRhO3,Cu,Rh,cubic,-0.302,0.643,0.453,11.424000000000001,0.0,3.851,3.851,3.851,90,90,90,-0.321
CuRuO3,Cu,Ru,orthorhombic,-0.955,0.128,0.199,9.792,0.0,5.109,5.125,7.479,90,90,90,1.4669999999999999
CuSbO3,Cu,Sb,rhombohedral,-1.305,0.03,-,11.001,0.0,5.447,5.447,5.447,58.4,58.4,58.4,2.079
CuScO3,Cu,Sc,cubic,-1.431,0.8059999999999999,0.339,13.325,0.0,4.054,4.054,4.054,90,90,90,-3.057
CuSiO3,Cu,Si,cubic,-1.607,0.5589999999999999,-,8.578,0.0,3.5,3.5,3.5,90,90,90,0.45
CuSmO3,Cu,Sm,rhombohedral,-1.9909999999999999,0.27399999999999997,0.399,14.040999999999999,0.368,6.098,6.098,6.098,54.7,54.7,54.7,-3.935
CuSnO3,Cu,Sn,cubic,-0.828,0.6659999999999999,-,12.972999999999999,0.0,4.018,4.018,4.018,90,90,90,-1.033
CuSrO3,Cu,Sr,orthorhombic,-1.409,0.209,-,13.148,0.0,5.85,6.267,7.173,90,90,90,-8.824
CuTaO3,Cu,Ta,orthorhombic,-2.32,0.077,0,10.912,1.36,5.233,5.456,7.643,90,90,90,5.237
CuTbO3,Cu,Tb,rhombohedral,-1.9180000000000001,0.22399999999999998,0.399,13.472999999999999,0.366,6.037,6.037,6.037,54.3,54.3,54.3,-3.7289999999999996
CuTcO3,Cu,Tc,rhombohedral,-1.295,0.055999999999999994,0,10.238999999999999,0.0,5.382,5.382,5.382,56.9,56.9,56.9,2.9960000000000004
CuTeO3,Cu,Te,rhombohedral,-0.951,0.151,-,11.749,0.0,5.602,5.602,5.602,57.6,57.6,57.6,1.048
CuThO3,Cu,Th,cubic,-1.922,0.943,-0.029,17.768,0.0,4.462,4.462,4.462,90,90,90,-1.294
CuTiO3,Cu,Ti,orthorhombic,-2.142,0.126,0.2,9.718,0.653,4.937,5.24,7.512,90,90,90,-0.66
CuTlO3,Cu,Tl,rhombohedral,-0.494,0.297,-,13.088,0.0,5.863,5.863,5.863,56.5,56.5,56.5,-4.277
CuTmO3,Cu,Tm,rhombohedral,-2.0980000000000003,0.212,0.4,12.845999999999998,0.384,5.95,5.95,5.95,54.1,54.1,54.1,-4.013
CuUO3,Cu,U,rhombohedral,-2.609,0.011000000000000001,0.2,13.29,1.7690000000000001,5.912,5.912,5.912,56.1,56.1,56.1,3.2880000000000003
CuVO3,Cu,V,orthorhombic,-1.7369999999999999,0.111,0,9.48,0.34299999999999997,4.949,5.134,7.463,90,90,90,1.7790000000000001
CuWO3,Cu,W,rhombohedral,-1.739,0.217,-0.001,10.669,0.0,5.5,5.5,5.5,56,56,56,4.638999999999999
CuYO3,Cu,Y,rhombohedral,-2.041,0.266,0.401,13.364,0.37,6.027,6.027,6.027,54.1,54.1,54.1,-4.218
CuYbO3,Cu,Yb,orthorhombic,-1.595,0.275,-,11.075,0.0,5.663,5.665,6.903,90,90,90,-6.856
CuZnO3,Cu,Zn,cubic,-0.068,0.914,-,10.874,0.0,3.788,3.788,3.788,90,90,90,-4.296
CuZrO3,Cu,Zr,cubic,-1.845,0.657,0.202,14.062999999999999,0.0,4.127,4.127,4.127,90,90,90,-1.012
DyAcO3,Dy,Ac,cubic,-2.161,1.554,0,20.224,0.0,4.659,4.659,4.659,90,90,90,0.805
DyAgO3,Dy,Ag,cubic,-1.432,0.605,0,12.953,0.0,4.016,4.016,4.016,90,90,90,-0.565
DyAlO3,Dy,Al,orthorhombic,-3.588,-0.03,0,10.198,6.026,5.175,5.338,7.383,90,90,90,6.313
DyAsO3,Dy,As,cubic,-1.9069999999999998,0.782,0,12.687000000000001,0.0,3.988,3.988,3.988,90,90,90,2.144
DyAuO3,Dy,Au,cubic,-1.2919999999999998,0.774,0,13.694,0.0,4.091,4.091,4.091,90,90,90,-0.674
DyBO3,Dy,B,cubic,-2.526,0.836,0,8.244,3.002,3.454,3.454,3.454,90,90,90,5.457999999999999
DyBaO3,Dy,Ba,orthorhombic,-2.8310000000000004,0.26899999999999996,0.201,18.45,0.638,6.509,6.787,8.353,90,90,90,-7.6770000000000005
DyBeO3,Dy,Be,tetragonal,-2.799,0.312,0.042,9.515,0.0,3.311,3.311,4.341,90,90,90,-0.941
DyBiO3,Dy,Bi,cubic,-1.518,1.1440000000000001,0,16.579,0.0,4.36,4.36,4.36,90,90,90,0.7859999999999999
DyCaO3,Dy,Ca,cubic,-2.141,1.075,0.2,13.605,0.0,4.082,4.082,4.082,90,90,90,-2.929
DyCdO3,Dy,Cd,cubic,-1.598,0.8220000000000001,0,13.640999999999998,0.0,4.086,4.086,4.086,90,90,90,-1.035
DyCeO3,Dy,Ce,cubic,-2.306,1.379,0,18.617,0.0,4.532,4.532,4.532,90,90,90,-3.241
DyCrO3,Dy,Cr,orthorhombic,-3.2039999999999997,-0.038,0.6,11.115,2.524,5.265,5.569,7.582,90,90,90,4.239
DyCuO3,Dy,Cu,orthorhombic,-2.282,0.047,0,10.964,0.256,5.205,5.86,7.189,90,90,90,0.68
Dy2O3,Dy,Dy,cubic,-2.904,0.946,0,15.460999999999999,1.645,4.26,4.26,4.26,90,90,90,0.855
DyErO3,Dy,Er,cubic,-3.0039999999999996,0.8690000000000001,0,14.940999999999999,1.781,4.212,4.212,4.212,90,90,90,1.611
DyEuO3,Dy,Eu,cubic,-2.131,1.1520000000000001,0.105,15.365,0.0,4.251,4.251,4.251,90,90,90,-2.3680000000000003
DyFeO3,Dy,Fe,orthorhombic,-2.782,-0.033,1,11.252,1.179,5.283,5.597,7.611,90,90,90,3.193
DyGaO3,Dy,Ga,orthorhombic,-2.972,0.017,0,11.058,4.078,5.263,5.558,7.56,90,90,90,4.452
DyGdO3,Dy,Gd,cubic,-2.7889999999999997,1.032,0,16.035,1.31,4.312,4.312,4.312,90,90,90,0.09699999999999999
DyGeO3,Dy,Ge,cubic,-2.2159999999999997,0.609,0,11.572000000000001,0.0,3.868,3.868,3.868,90,90,90,2.802
DyHfO3,Dy,Hf,cubic,-3.1310000000000002,0.522,0,13.456,0.0,4.067,4.067,4.067,90,90,90,4.507
DyHgO3,Dy,Hg,cubic,-1.177,0.93,0,14.655999999999999,0.0,4.185,4.185,4.185,90,90,90,-0.976
DyHoO3,Dy,Ho,cubic,-2.9560000000000004,0.9059999999999999,0,15.202,1.781,4.236,4.236,4.236,90,90,90,1.3119999999999998
DyInO3,Dy,In,cubic,-2.146,0.701,0,13.544,1.635,4.076,4.076,4.076,90,90,90,2.656
DyIrO3,Dy,Ir,cubic,-1.646,0.758,0,12.315,0.0,3.949,3.949,3.949,90,90,90,-0.915
DyKO3,Dy,K,orthorhombic,-2.051,0.452,0.4,17.952,0.0,5.932,5.968,10.141,90,90,90,-3.943
DyLaO3,Dy,La,cubic,-2.427,1.354,0,18.299,0.0,4.506,4.506,4.506,90,90,90,2.068
DyLiO3,Dy,Li,orthorhombic,-2.281,0.326,0.4,10.375,0.0,4.991,5.762,7.215,90,90,90,-1.307
DyLuO3,Dy,Lu,cubic,-3.148,0.758,0,14.264000000000001,2.1630000000000003,4.147,4.147,4.147,90,90,90,4.6160000000000005
DyMgO3,Dy,Mg,orthorhombic,-2.927,0.185,0.201,11.421,0.0,5.385,5.727,7.406,90,90,90,-1.4680000000000002
DyMnO3,Dy,Mn,orthorhombic,-2.96,0.024,0.8,11.308,0.262,5.281,5.721,7.486,90,90,90,3.4810000000000003
DyMoO3,Dy,Mo,cubic,-2.278,0.616,0.005,12.338,0.0,3.951,3.951,3.951,90,90,90,1.68
DyNaO3,Dy,Na,cubic,-1.4409999999999998,1.064,0.399,12.005,0.0,3.915,3.915,3.915,90,90,90,-2.833
DyNbO3,Dy,Nb,cubic,-2.6010000000000004,0.614,0.001,13.017999999999999,0.0,4.023,4.023,4.023,90,90,90,3.1039999999999996
DyNdO3,Dy,Nd,cubic,-2.487,1.248,0,17.598,0.49700000000000005,4.448,4.448,4.448,90,90,90,-1.117
DyNiO3,Dy,Ni,orthorhombic,-2.408,0.013000000000000001,0.2,10.539000000000001,0.0,5.166,5.518,7.395,90,90,90,1.062
DyNpO3,Dy,Np,cubic,-2.574,1.092,0.776,17.072,0.0,4.403,4.403,4.403,90,90,90,2.464
DyOsO3,Dy,Os,cubic,-1.693,0.755,0.007,12.181,0.0,3.934,3.934,3.934,90,90,90,0.061
DyPaO3,Dy,Pa,cubic,-2.38,0.9390000000000001,0.284,17.755,0.0,4.461,4.461,4.461,90,90,90,2.637
DyPbO3,Dy,Pb,cubic,-1.5,1.042,0,15.731,0.0,4.285,4.285,4.285,90,90,90,0.598
DyPdO3,Dy,Pd,orthorhombic,-2.205,-0.02,0.005,11.872,0.0,5.378,5.881,7.508,90,90,90,-0.109
DyPmO3,Dy,Pm,cubic,-2.5780000000000003,1.185,0,17.123,0.6920000000000001,4.407,4.407,4.407,90,90,90,-1.45
DyPrO3,Dy,Pr,cubic,-2.403,1.31,0,18.062,0.321,4.487,4.487,4.487,90,90,90,-2.614
DyPtO3,Dy,Pt,cubic,-1.556,0.7170000000000001,0,12.892000000000001,0.0,4.01,4.01,4.01,90,90,90,-0.555
DyPuO3,Dy,Pu,cubic,-2.6239999999999997,1.117,0.914,16.572,0.0,4.36,4.36,4.36,90,90,90,2.792
DyRbO3,Dy,Rb,orthorhombic,-2.017,0.47600000000000003,0.4,19.47,0.0,5.891,6.009,11.001,90,90,90,-8.219
DyReO3,Dy,Re,cubic,-1.905,0.7879999999999999,0.162,12.263,0.0,3.943,3.943,3.943,90,90,90,0.21600000000000003
DyRuO3,Dy,Ru,cubic,-1.91,0.585,0.128,11.963,0.0,3.911,3.911,3.911,90,90,90,0.667
DySbO3,Dy,Sb,cubic,-1.734,0.98,0,14.845,0.0,4.203,4.203,4.203,90,90,90,0.89
DyScO3,Dy,Sc,orthorhombic,-3.803,0.026000000000000002,0,12.208,4.69,5.422,5.711,7.886,90,90,90,5.05
DySiO3,Dy,Si,cubic,-2.642,0.667,0.001,9.982999999999999,0.0,3.682,3.682,3.682,90,90,90,4.5760000000000005
DySmO3,Dy,Sm,cubic,-2.635,1.141,0,16.805,0.893,4.38,4.38,4.38,90,90,90,-1.02
DySnO3,Dy,Sn,cubic,-2.01,0.843,0,13.812000000000001,0.0,4.103,4.103,4.103,90,90,90,2.274
DySrO3,Dy,Sr,orthorhombic,-2.905,0.257,0.2,16.66,0.0,5.809,5.823,9.85,90,90,90,-3.7289999999999996
DyTaO3,Dy,Ta,cubic,-2.68,0.648,0.001,12.815,0.0,4.002,4.002,4.002,90,90,90,3.128
DyTbO3,Dy,Tb,cubic,-2.717,0.988,0,15.738,1.3659999999999999,4.285,4.285,4.285,90,90,90,0.42700000000000005
DyTcO3,Dy,Tc,cubic,-2.083,0.607,0.313,12.140999999999998,0.0,3.93,3.93,3.93,90,90,90,1.165
DyTeO3,Dy,Te,cubic,-1.422,1.1340000000000001,0.003,15.137,0.0,4.23,4.23,4.23,90,90,90,0.8009999999999999
DyThO3,Dy,Th,cubic,-2.775,1.057,0.024,18.86,0.0,4.552,4.552,4.552,90,90,90,2.41
DyTiO3,Dy,Ti,orthorhombic,-3.464,0.022000000000000002,0.2,11.46,0.0,5.299,5.668,7.63,90,90,90,4.715
DyTlO3,Dy,Tl,cubic,-1.444,0.95,0,15.158,0.0,4.232,4.232,4.232,90,90,90,0.545
DyTmO3,Dy,Tm,cubic,-3.0660000000000003,0.825,0,14.690999999999999,1.9240000000000002,4.188,4.188,4.188,90,90,90,2.116
DyUO3,Dy,U,cubic,-2.574,1.07,0.548,16.889,0.0,4.387,4.387,4.387,90,90,90,2.2680000000000002
DyVO3,Dy,V,orthorhombic,-3.2710000000000004,-0.03,0.4,11.415999999999999,1.112,5.296,5.659,7.618,90,90,90,3.989
DyWO3,Dy,W,cubic,-2.199,0.743,0.001,12.402000000000001,0.0,3.958,3.958,3.958,90,90,90,1.216
DyYO3,Dy,Y,cubic,-2.8810000000000002,0.948,-0.001,15.453,1.8030000000000002,4.259,4.259,4.259,90,90,90,0.899
DyYbO3,Dy,Yb,cubic,-2.384,0.9440000000000001,0.2,13.713,0.0,4.093,4.093,4.093,90,90,90,-1.931
DyZnO3,Dy,Zn,orthorhombic,-2.449,0.136,0,11.279000000000002,0.0,5.237,5.775,7.459,90,90,90,-0.22399999999999998
DyZrO3,Dy,Zr,cubic,-2.9619999999999997,0.607,0,14.002,0.0,4.122,4.122,4.122,90,90,90,4.1530000000000005
ErAcO3,Er,Ac,orthorhombic,-3.5389999999999997,0.209,0,17.048,3.463,6.095,6.24,8.964,90,90,90,0.52
ErAgO3,Er,Ag,cubic,-1.379,0.682,0,12.853,0.0,4.006,4.006,4.006,90,90,90,-0.743
ErAlO3,Er,Al,orthorhombic,-3.602,-0.022000000000000002,0,10.062000000000001,6.221,5.131,5.341,7.343,90,90,90,6.255
ErAsO3,Er,As,cubic,-1.854,0.8170000000000001,0,12.618,0.0,3.981,3.981,3.981,90,90,90,2.013
ErAuO3,Er,Au,cubic,-1.236,0.853,0,13.633,0.0,4.085,4.085,4.085,90,90,90,-0.826
ErBO3,Er,B,cubic,-2.53,0.812,0,8.096,3.096,3.434,3.434,3.434,90,90,90,5.502000000000001
ErBaO3,Er,Ba,orthorhombic,-2.8480000000000003,0.276,0.2,18.174,0.6409999999999999,6.465,6.767,8.309,90,90,90,-8.217
ErBeO3,Er,Be,tetragonal,-2.807,0.32799999999999996,0.035,9.389,0.0,3.287,3.287,4.345,90,90,90,-1.1
ErBiO3,Er,Bi,cubic,-1.46,1.225,0,16.569000000000003,0.0,4.359,4.359,4.359,90,90,90,0.529
ErCaO3,Er,Ca,cubic,-2.099,1.14,0.2,13.969000000000001,0.0,4.118,4.118,4.118,90,90,90,-3.043
ErCdO3,Er,Cd,cubic,-1.5419999999999998,0.9,0,13.588,0.0,4.08,4.08,4.08,90,90,90,-1.207
ErCeO3,Er,Ce,cubic,-2.242,1.466,0,18.584,0.0,4.529,4.529,4.529,90,90,90,-3.532
ErCoO3,Er,Co,orthorhombic,-2.551,0.024,0,10.600999999999999,1.392,5.144,5.549,7.428,90,90,90,2.225
ErCrO3,Er,Cr,orthorhombic,-3.217,-0.027999999999999997,0.6,10.953,2.4619999999999997,5.23,5.551,7.545,90,90,90,4.12
ErCuO3,Er,Cu,orthorhombic,-2.296,0.052000000000000005,0,10.81,0.26899999999999996,5.179,5.849,7.137,90,90,90,0.539
ErDyO3,Er,Dy,cubic,-2.844,1.0290000000000001,0,15.36,1.129,4.251,4.251,4.251,90,90,90,0.313
Er2O3,Er,Er,cubic,-2.947,0.9490000000000001,0,14.923,1.5590000000000002,4.21,4.21,4.21,90,90,90,1.088
ErEuO3,Er,Eu,cubic,-2.07,1.237,0.097,15.315999999999999,0.0,4.247,4.247,4.247,90,90,90,-2.26
ErGaO3,Er,Ga,orthorhombic,-2.985,0.021,0,10.892000000000001,4.0760000000000005,5.225,5.544,7.52,90,90,90,4.343
ErGdO3,Er,Gd,cubic,-2.7289999999999996,1.1159999999999999,0,16.005,0.8170000000000001,4.309,4.309,4.309,90,90,90,-0.434
ErGeO3,Er,Ge,cubic,-2.171,0.628,0,11.493,0.0,3.859,3.859,3.859,90,90,90,2.685
ErHfO3,Er,Hf,cubic,-3.0810000000000004,0.595,0,13.445,0.0,4.066,4.066,4.066,90,90,90,4.399
ErHgO3,Er,Hg,cubic,-1.117,1.013,0,14.573,0.0,4.177,4.177,4.177,90,90,90,-1.117
ErHoO3,Er,Ho,cubic,-2.897,0.988,0,15.123,1.411,4.229,4.229,4.229,90,90,90,0.759
ErInO3,Er,In,cubic,-2.095,0.775,0,13.618,1.406,4.083,4.083,4.083,90,90,90,2.577
ErIrO3,Er,Ir,cubic,-1.595,0.8320000000000001,0,12.25,0.0,3.942,3.942,3.942,90,90,90,-1.136
ErKO3,Er,K,cubic,-0.6609999999999999,1.874,-0.024,14.248,0.0,4.145,4.145,4.145,90,90,90,-4.104
ErLaO3,Er,La,cubic,-2.364,1.44,0,18.281,0.0,4.505,4.505,4.505,90,90,90,1.788
ErLiO3,Er,Li,cubic,-2.076,0.5539999999999999,0.399,9.417,0.0,3.611,3.611,3.611,90,90,90,-1.4869999999999999
ErLuO3,Er,Lu,cubic,-3.092,0.8370000000000001,0,14.189,0.987,4.14,4.14,4.14,90,90,90,2.182
ErMgO3,Er,Mg,cubic,-2.572,0.564,0.201,10.890999999999998,0.0,3.79,3.79,3.79,90,90,90,-1.7109999999999999
ErMnO3,Er,Mn,orthorhombic,-2.971,0.036000000000000004,0.8,11.142999999999999,0.273,5.243,5.699,7.457,90,90,90,3.37
ErMoO3,Er,Mo,cubic,-2.225,0.693,0.005,12.292,0.0,3.946,3.946,3.946,90,90,90,1.409
ErNaO3,Er,Na,cubic,-1.392,1.151,0.4,11.886,0.0,3.902,3.902,3.902,90,90,90,-3.0380000000000003
ErNbO3,Er,Nb,cubic,-2.5469999999999997,0.685,0,12.992,0.0,4.02,4.02,4.02,90,90,90,2.89
ErNdO3,Er,Nd,cubic,-2.424,1.334,0,17.56,0.0,4.445,4.445,4.445,90,90,90,-2.591
ErNiO3,Er,Ni,orthorhombic,-2.4219999999999997,0.023,0.2,10.367,0.0,5.116,5.532,7.326,90,90,90,0.935
ErNpO3,Er,Np,cubic,-2.521,1.177,0.761,17.041,0.0,4.4,4.4,4.4,90,90,90,2.006
ErOsO3,Er,Os,cubic,-1.641,0.83,0.008,12.128,0.0,3.929,3.929,3.929,90,90,90,-0.184
ErPaO3,Er,Pa,cubic,-2.339,1.004,0.275,17.741,0.0,4.46,4.46,4.46,90,90,90,2.508
ErPbO3,Er,Pb,cubic,-1.44,1.125,0,15.602,0.0,4.273,4.273,4.273,90,90,90,0.493
ErPdO3,Er,Pd,cubic,-1.67,0.5379999999999999,0,12.251,0.0,3.942,3.942,3.942,90,90,90,-0.261
ErPmO3,Er,Pm,cubic,-2.515,1.271,0,17.07,0.344,4.403,4.403,4.403,90,90,90,-1.673
ErPrO3,Er,Pr,cubic,-2.34,1.396,0,18.047,0.0,4.485,4.485,4.485,90,90,90,-2.93
ErPtO3,Er,Pt,cubic,-1.5019999999999998,0.794,0,12.825,0.0,4.003,4.003,4.003,90,90,90,-0.711
ErPuO3,Er,Pu,cubic,-2.576,1.189,0.9,16.570999999999998,0.0,4.36,4.36,4.36,90,90,90,-0.961
ErRbO3,Er,Rb,orthorhombic,-2.146,0.371,0,17.854,1.3159999999999998,6.105,6.145,9.519,90,90,90,-3.596
ErReO3,Er,Re,cubic,-1.8519999999999999,0.865,0.161,12.22,0.0,3.939,3.939,3.939,90,90,90,-0.079
ErRhO3,Er,Rh,cubic,-1.806,0.609,0.001,11.886,0.0,3.902,3.902,3.902,90,90,90,-0.384
ErRuO3,Er,Ru,cubic,-1.86,0.6579999999999999,0.133,11.897,0.0,3.904,3.904,3.904,90,90,90,0.413
ErSbO3,Er,Sb,cubic,-1.6780000000000002,1.06,0,14.796,0.0,4.198,4.198,4.198,90,90,90,0.53
ErScO3,Er,Sc,cubic,-3.2689999999999997,0.583,0,12.575,2.7510000000000003,3.976,3.976,3.976,90,90,90,4.961
ErSiO3,Er,Si,cubic,-2.61,0.795,0.001,9.83,0.0,3.663,3.663,3.663,90,90,90,4.497
ErSmO3,Er,Sm,cubic,-2.573,1.226,0,16.759,0.5329999999999999,4.376,4.376,4.376,90,90,90,-1.555
ErSnO3,Er,Sn,cubic,-1.956,0.907,0,13.706,0.0,4.092,4.092,4.092,90,90,90,2.19
ErSrO3,Er,Sr,orthorhombic,-2.886,0.3,0.2,15.856,0.0,5.898,5.936,9.057,90,90,90,-4.194
ErTaO3,Er,Ta,cubic,-2.6289999999999996,0.713,0,12.78,0.0,3.998,3.998,3.998,90,90,90,2.891
ErTbO3,Er,Tb,cubic,-2.658,1.071,0,15.697000000000001,0.985,4.282,4.282,4.282,90,90,90,0.0
ErTcO3,Er,Tc,cubic,-2.031,0.682,0.315,12.073,0.0,3.923,3.923,3.923,90,90,90,0.883
ErTeO3,Er,Te,cubic,-1.368,1.205,0.004,15.123,0.0,4.229,4.229,4.229,90,90,90,0.615
ErThO3,Er,Th,cubic,-2.7319999999999998,1.123,0.024,18.855999999999998,0.0,4.551,4.551,4.551,90,90,90,1.975
ErTiO3,Er,Ti,orthorhombic,-3.4730000000000003,0.036000000000000004,0.2,11.287,0.0,5.262,5.649,7.595,90,90,90,4.577
ErTlO3,Er,Tl,cubic,-1.3840000000000001,1.033,0,15.091,0.0,4.226,4.226,4.226,90,90,90,0.415
ErTmO3,Er,Tm,cubic,-3.008,0.9059999999999999,0,14.6,1.7009999999999998,4.179,4.179,4.179,90,90,90,2.033
ErUO3,Er,U,cubic,-2.528,1.139,0.527,16.835,0.0,4.383,4.383,4.383,90,90,90,1.558
ErVO3,Er,V,orthorhombic,-3.282,-0.018000000000000002,0.4,11.251,1.138,5.263,5.637,7.585,90,90,90,3.8810000000000002