formula,atom a,atom b,lowest distortion,e_form,e_hull,mu_b,vpa,gap pbe,a,b,c,alpha,beta,gamma,e_form oxygen
SbPdO3,Sb,Pd,cubic,-0.512,0.7390000000000001,-,12.597999999999999,0.0,3.979,3.979,3.979,90,90,90,0.053
SbPmO3,Sb,Pm,cubic,-1.526,1.102,0.022,17.511,0.0,4.44,4.44,4.44,90,90,90,-4.718
SbPrO3,Sb,Pr,cubic,-1.3940000000000001,1.262,0.06,18.323,0.0,4.508,4.508,4.508,90,90,90,-5.476
SbPtO3,Sb,Pt,cubic,-0.414,0.815,0,13.017999999999999,0.0,4.023,4.023,4.023,90,90,90,-0.071
SbPuO3,Sb,Pu,cubic,-1.8969999999999998,0.7090000000000001,0.769,16.637,0.0,4.365,4.365,4.365,90,90,90,1.714
SbRbO3,Sb,Rb,orthorhombic,-1.605,0.248,-,18.771,1.89,5.206,5.92,12.181,90,90,90,-11.304
SbReO3,Sb,Re,cubic,-0.929,0.637,0.026,12.519,0.0,3.971,3.971,3.971,90,90,90,1.672
SbRhO3,Sb,Rh,cubic,-0.6679999999999999,0.634,0,12.247,0.0,3.942,3.942,3.942,90,90,90,0.326
SbRuO3,Sb,Ru,cubic,-0.758,0.613,0.188,12.238,0.0,3.941,3.941,3.941,90,90,90,1.1540000000000001
Sb2O3,Sb,Sb,cubic,-0.897,0.682,-,14.210999999999999,0.0,4.142,4.142,4.142,90,90,90,0.87
SbScO3,Sb,Sc,cubic,-2.084,0.61,0,13.030999999999999,0.8340000000000001,4.024,4.024,4.024,90,90,90,0.35
SbSiO3,Sb,Si,cubic,-1.574,0.7959999999999999,-,10.209,0.0,3.71,3.71,3.71,90,90,90,2.83
SbSmO3,Sb,Sm,cubic,-1.568,1.147,0.011,17.218,0.0,4.416,4.416,4.416,90,90,90,-4.42
SbSnO3,Sb,Sn,cubic,-1.1420000000000001,0.556,-,13.64,0.0,4.086,4.086,4.086,90,90,90,3.013
SbSrO3,Sb,Sr,orthorhombic,-2.134,0.212,-,16.467,0.0,5.939,6.155,9.011,90,90,90,-9.146
SbTaO3,Sb,Ta,cubic,-1.8769999999999998,0.578,0.001,13.245999999999999,0.0,4.046,4.046,4.046,90,90,90,3.272
SbTbO3,Sb,Tb,cubic,-1.607,0.963,-0.001,16.192,0.0,4.326,4.326,4.326,90,90,90,-3.307
SbTcO3,Sb,Tc,cubic,-0.995,0.56,0.359,12.48,0.0,3.966,3.966,3.966,90,90,90,1.975
SbTeO3,Sb,Te,cubic,-0.633,0.7490000000000001,-,14.998,0.0,4.217,4.217,4.217,90,90,90,-0.441
SbThO3,Sb,Th,cubic,-2.137,0.932,0,18.97,0.0,4.561,4.561,4.561,90,90,90,0.537
SbTiO3,Sb,Ti,tetragonal,-2.177,0.295,0.145,12.745,0.0,3.892,3.892,4.207,90,90,90,3.841
SbTlO3,Sb,Tl,orthorhombic,-1.18,0.365,-,14.757,0.8690000000000001,5.751,6.242,8.222,90,90,90,-4.176
SbTmO3,Sb,Tm,cubic,-1.915,0.841,0,15.13,0.0,4.229,4.229,4.229,90,90,90,-2.008
SbUO3,Sb,U,cubic,-2.125,0.6940000000000001,0.134,16.576,0.0,4.36,4.36,4.36,90,90,90,2.138
SbVO3,Sb,V,orthorhombic,-1.993,0.11199999999999999,0.4,11.800999999999998,0.606,5.306,5.791,7.681,90,90,90,3.1310000000000002
SbWO3,Sb,W,cubic,-1.317,0.64,-0.002,12.767000000000001,0.0,3.997,3.997,3.997,90,90,90,2.948
SbYO3,Sb,Y,cubic,-1.7590000000000001,0.961,0,15.899000000000001,0.0,4.3,4.3,4.3,90,90,90,-2.971
SbYbO3,Sb,Yb,orthorhombic,-2.312,0.091,-,13.852,0.0,5.644,5.893,8.329,90,90,90,-6.013999999999999
SbZnO3,Sb,Zn,cubic,-0.858,0.797,-,11.389000000000001,0.0,3.847,3.847,3.847,90,90,90,-1.53
SbZrO3,Sb,Zr,cubic,-2.144,0.562,0,14.421,0.0,4.162,4.162,4.162,90,90,90,3.283
ScAcO3,Sc,Ac,orthorhombic,-3.5069999999999997,0.255,0,16.090999999999998,3.5069999999999997,5.962,6.047,8.927,90,90,90,-6.5329999999999995
ScAgO3,Sc,Ag,orthorhombic,-1.8219999999999998,0.19399999999999998,0,11.508,0.0,5.176,5.516,8.06,90,90,90,-1.495
ScAlO3,Sc,Al,orthorhombic,-3.508,0.027999999999999997,0,9.322000000000001,5.018,4.939,5.23,7.218,90,90,90,5.0680000000000005
ScAsO3,Sc,As,cubic,-1.591,1.035,0.12,11.845,0.0,3.898,3.898,3.898,90,90,90,1.189
ScAuO3,Sc,Au,cubic,-0.857,1.187,0.006,13.274000000000001,0.0,4.049,4.049,4.049,90,90,90,-1.476
ScBO3,Sc,B,cubic,-2.326,0.9470000000000001,0,7.496,2.021,3.347,3.347,3.347,90,90,90,4.771
ScBaO3,Sc,Ba,orthorhombic,-2.818,0.292,0.002,17.299,0.0,6.038,6.55,8.748,90,90,90,-9.719
ScBeO3,Sc,Be,cubic,-2.449,0.6409999999999999,-0.013,8.113999999999999,0.0,3.436,3.436,3.436,90,90,90,-2.106
ScBiO3,Sc,Bi,cubic,-1.237,1.4040000000000001,0.159,16.035,0.0,4.312,4.312,4.312,90,90,90,0.324
ScCdO3,Sc,Cd,cubic,-1.13,1.2770000000000001,0,13.412,0.0,4.063,4.063,4.063,90,90,90,-2.931
ScCeO3,Sc,Ce,orthorhombic,-3.448,0.254,0,14.934000000000001,3.552,5.85,5.951,8.579,90,90,90,-5.624
ScCoO3,Sc,Co,cubic,-1.94,0.591,0,9.546,0.8490000000000001,3.627,3.627,3.627,90,90,90,1.089
ScCrO3,Sc,Cr,cubic,-2.4859999999999998,0.6579999999999999,0.6,10.702,0.436,3.768,3.768,3.768,90,90,90,2.781
ScCuO3,Sc,Cu,cubic,-1.671,0.5660000000000001,-0.001,9.857999999999999,0.0,3.667,3.667,3.667,90,90,90,-0.392
ScDyO3,Sc,Dy,cubic,-2.451,1.3780000000000001,0,15.377,0.46399999999999997,4.252,4.252,4.252,90,90,90,-2.252
ScErO3,Sc,Er,cubic,-2.549,1.3030000000000002,0,14.845,0.69,4.203,4.203,4.203,90,90,90,-1.591
ScEuO3,Sc,Eu,orthorhombic,-3.0989999999999998,0.16899999999999998,0.2,14.227,0.6409999999999999,5.822,6.059,8.066,90,90,90,-5.376
ScFeO3,Sc,Fe,cubic,-2.035,0.6940000000000001,0.941,10.773,0.0,3.777,3.777,3.777,90,90,90,1.505
ScGaO3,Sc,Ga,cubic,-2.283,0.672,0,10.575999999999999,1.5819999999999999,3.753,3.753,3.753,90,90,90,3.32
ScGdO3,Sc,Gd,cubic,-2.339,1.4609999999999999,0,15.967,0.44799999999999995,4.306,4.306,4.306,90,90,90,-2.8760000000000003
ScGeO3,Sc,Ge,cubic,-1.995,0.758,0.089,10.645999999999999,0.0,3.762,3.762,3.762,90,90,90,2.523
ScHfO3,Sc,Hf,cubic,-2.968,0.6629999999999999,0.198,13.277000000000001,0.0,4.049,4.049,4.049,90,90,90,4.672
ScHgO3,Sc,Hg,cubic,-0.725,1.361,0.017,14.267999999999999,0.0,4.147,4.147,4.147,90,90,90,-3.25
ScHoO3,Sc,Ho,cubic,-2.501,1.3430000000000002,0,15.091,0.687,4.226,4.226,4.226,90,90,90,-1.919
ScInO3,Sc,In,orthorhombic,-2.677,0.149,0,11.99,3.175,5.317,5.581,8.082,90,90,90,0.677
ScIrO3,Sc,Ir,cubic,-1.3030000000000002,1.08,0,11.895,0.0,3.903,3.903,3.903,90,90,90,-1.3980000000000001
ScLaO3,Sc,La,orthorhombic,-3.557,0.23199999999999998,0,14.829,4.122,5.817,5.923,8.607,90,90,90,-5.546
ScLiO3,Sc,Li,cubic,-1.735,0.868,0.401,8.776,0.0,3.527,3.527,3.527,90,90,90,-2.605
ScLuO3,Sc,Lu,cubic,-2.6919999999999997,1.193,0,14.110999999999999,0.696,4.132,4.132,4.132,90,90,90,-0.613
ScMgO3,Sc,Mg,cubic,-2.182,0.909,0.002,10.538,0.0,3.749,3.749,3.749,90,90,90,-2.95
ScMnO3,Sc,Mn,cubic,-2.2569999999999997,0.655,0.766,10.681,0.0,3.766,3.766,3.766,90,90,90,1.8130000000000002
ScMoO3,Sc,Mo,cubic,-2.0469999999999997,0.826,0.17,11.995,0.0,3.914,3.914,3.914,90,90,90,1.521
ScNaO3,Sc,Na,orthorhombic,-2.072,0.41700000000000004,0.4,12.796,0.0,5.481,5.484,8.515,90,90,90,-4.175
ScNbO3,Sc,Nb,cubic,-2.405,0.753,0.161,12.75,0.0,3.995,3.995,3.995,90,90,90,3.214
ScNdO3,Sc,Nd,orthorhombic,-3.5060000000000002,0.23,0,14.353,3.62,5.768,5.89,8.45,90,90,90,-4.7
ScNiO3,Sc,Ni,cubic,-1.827,0.573,0.2,9.674,0.0,3.644,3.644,3.644,90,90,90,0.13
ScNpO3,Sc,Np,orthorhombic,-3.4789999999999996,0.23399999999999999,0.8,14.522,1.8330000000000002,5.815,5.882,8.49,90,90,90,2.0580000000000003
ScOsO3,Sc,Os,cubic,-1.4040000000000001,1.022,0.128,11.792,0.0,3.892,3.892,3.892,90,90,90,-0.311
ScPaO3,Sc,Pa,cubic,-2.219,1.079,0.37,16.724,0.0,4.373,4.373,4.373,90,90,90,3.28
ScPbO3,Sc,Pb,orthorhombic,-2.256,0.265,0.001,13.876,0.0,5.724,5.876,8.252,90,90,90,0.46
ScPdO3,Sc,Pd,cubic,-1.291,0.872,0,11.96,0.0,3.911,3.911,3.911,90,90,90,-1.005
ScPmO3,Sc,Pm,cubic,-2.1390000000000002,1.6159999999999999,-0.001,17.037,0.0,4.4,4.4,4.4,90,90,90,-4.218
ScPrO3,Sc,Pr,orthorhombic,-3.4789999999999996,0.242,0,14.625,3.617,5.806,5.921,8.508,90,90,90,-5.149
ScPtO3,Sc,Pt,cubic,-1.156,1.0959999999999999,0.002,12.456,0.0,3.964,3.964,3.964,90,90,90,-1.253
ScPuO3,Sc,Pu,cubic,-2.434,1.31,0.998,16.282,0.0,4.334,4.334,4.334,90,90,90,-1.12
ScRbO3,Sc,Rb,orthorhombic,-2.175,0.297,0,16.645,2.45,6.447,6.943,7.438,90,90,90,-12.193
ScReO3,Sc,Re,cubic,-1.683,0.9890000000000001,0.205,11.894,0.0,3.903,3.903,3.903,90,90,90,0.038
ScRhO3,Sc,Rh,cubic,-1.465,0.905,0,11.595999999999998,0.0,3.87,3.87,3.87,90,90,90,-0.9540000000000001
ScRuO3,Sc,Ru,cubic,-1.5630000000000002,0.9109999999999999,0.161,11.575,0.0,3.868,3.868,3.868,90,90,90,-0.061
ScSbO3,Sc,Sb,cubic,-1.515,1.178,0.2,13.968,0.0,4.118,4.118,4.118,90,90,90,1.271
Sc2O3,Sc,Sc,cubic,-2.87,0.938,0,12.365,1.319,3.954,3.954,3.954,90,90,90,1.199
ScSiO3,Sc,Si,cubic,-2.6010000000000004,0.708,0.071,8.923,0.0,3.547,3.547,3.547,90,90,90,4.692
ScSmO3,Sc,Sm,orthorhombic,-3.556,0.204,0,13.929,4.072,5.706,5.84,8.36,90,90,90,-3.864
ScSnO3,Sc,Sn,cubic,-1.817,0.98,0.177,13.074000000000002,0.0,4.028,4.028,4.028,90,90,90,2.168
ScSrO3,Sc,Sr,orthorhombic,-2.92,0.22,0.2,15.245999999999999,0.8270000000000001,5.918,6.204,8.305,90,90,90,-6.832999999999999
ScTaO3,Sc,Ta,cubic,-2.5340000000000003,0.728,0.197,12.534,0.0,3.972,3.972,3.972,90,90,90,3.492
ScTbO3,Sc,Tb,cubic,-2.266,1.4180000000000001,0,15.67,0.46299999999999997,4.279,4.279,4.279,90,90,90,-2.611
ScTcO3,Sc,Tc,cubic,-1.791,0.878,0.345,11.731,0.0,3.885,3.885,3.885,90,90,90,0.589
ScTeO3,Sc,Te,cubic,-1.235,1.263,0.19,14.677,0.0,4.187,4.187,4.187,90,90,90,1.338
ScThO3,Sc,Th,cubic,-2.609,1.202,0.196,18.72,0.0,4.54,4.54,4.54,90,90,90,2.966
ScTiO3,Sc,Ti,cubic,-2.8939999999999997,0.57,0.01,11.232999999999999,0.0,3.83,3.83,3.83,90,90,90,3.687
ScTlO3,Sc,Tl,orthorhombic,-2.175,0.19699999999999998,0,13.138,1.462,5.517,5.734,8.307,90,90,90,-3.495
ScTmO3,Sc,Tm,cubic,-2.61,1.26,0,14.569,0.69,4.176,4.176,4.176,90,90,90,-1.199
ScUO3,Sc,U,cubic,-2.48,1.1420000000000001,0.579,16.403,0.0,4.345,4.345,4.345,90,90,90,3.072
ScVO3,Sc,V,cubic,-2.506,0.713,0.401,10.815999999999999,0.0,3.782,3.782,3.782,90,90,90,2.9739999999999998
ScWO3,Sc,W,cubic,-2.028,0.855,0.19,12.084000000000001,0.0,3.924,3.924,3.924,90,90,90,1.42
ScYO3,Sc,Y,cubic,-2.427,1.381,0,15.373,0.665,4.252,4.252,4.252,90,90,90,-2.1790000000000003
ScYbO3,Sc,Yb,orthorhombic,-3.13,0.177,0.2,13.152000000000001,1.054,5.688,5.817,7.949,90,90,90,-3.326
ScZnO3,Sc,Zn,cubic,-1.74,0.823,0,10.587,0.0,3.755,3.755,3.755,90,90,90,-1.3530000000000002
ScZrO3,Sc,Zr,cubic,-2.773,0.775,0.191,13.843,0.0,4.106,4.106,4.106,90,90,90,4.047
SiAcO3,Si,Ac,cubic,-1.067,2.106,0.018,19.279,0.0,4.585,4.585,4.585,90,90,90,-5.849
SiAgO3,Si,Ag,cubic,0.21,2.16,-,12.552999999999999,0.0,3.974,3.974,3.974,90,90,90,-7.077000000000001
SiAlO3,Si,Al,cubic,-1.619,1.405,-,9.633,0.0,3.638,3.638,3.638,90,90,90,-0.24600000000000002
SiAsO3,Si,As,cubic,-0.716,1.61,-,11.370999999999999,0.0,3.845,3.845,3.845,90,90,90,1.419
SiAuO3,Si,Au,cubic,0.17800000000000002,2.116,-,13.019,0.0,4.023,4.023,4.023,90,90,90,-1.1640000000000001
SiBO3,Si,B,cubic,-0.825,1.906,-,7.212999999999999,0.0,3.304,3.304,3.304,90,90,90,0.506
SiBaO3,Si,Ba,cubic,-0.08800000000000001,3.116,-,19.171,0.0,4.577,4.577,4.577,90,90,90,-7.572
SiBeO3,Si,Be,cubic,-0.972,2.065,-,7.735,0.0,3.382,3.382,3.382,90,90,90,-6.156000000000001
SiBiO3,Si,Bi,cubic,-0.475,1.8969999999999998,-,15.270999999999999,0.0,4.242,4.242,4.242,90,90,90,0.40399999999999997
SiCaO3,Si,Ca,orthorhombic,-3.108,0.184,-,12.267999999999999,4.126,4.921,5.143,9.694,90,90,90,-9.925
SiCdO3,Si,Cd,cubic,0.064,2.443,-,13.485,0.0,4.07,4.07,4.07,90,90,90,-7.671
SiCeO3,Si,Ce,cubic,-1.026,2.1180000000000003,-0.007,18.125,0.0,4.492,4.492,4.492,90,90,90,-6.727
SiCoO3,Si,Co,cubic,-0.536,1.8319999999999999,0.356,9.846,0.0,3.665,3.665,3.665,90,90,90,-1.423
SiCrO3,Si,Cr,cubic,-1.2309999999999999,1.486,0.4,10.623,0.0,3.759,3.759,3.759,90,90,90,-0.629
SiCsO3,Si,Cs,cubic,0.722,3.207,-,17.631,0.0,4.451,4.451,4.451,90,90,90,-2.713
SiCuO3,Si,Cu,cubic,-0.22899999999999998,1.9369999999999998,-,9.908,0.0,3.673,3.673,3.673,90,90,90,-5.053999999999999
SiDyO3,Si,Dy,cubic,-1.358,1.95,0.002,15.561,0.0,4.269,4.269,4.269,90,90,90,-5.843
SiErO3,Si,Er,cubic,-1.435,1.9709999999999999,-0.2,15.194,0.0,4.235,4.235,4.235,90,90,90,-5.4079999999999995
SiEuO3,Si,Eu,orthorhombic,-3.284,-0.081,0,11.892000000000001,3.915,4.56,5.029,10.372,90,90,90,-9.213
SiFeO3,Si,Fe,cubic,-0.833,1.6680000000000001,0.804,10.552,0.0,3.751,3.751,3.751,90,90,90,-1.814
SiGaO3,Si,Ga,cubic,-0.846,1.6980000000000002,-,10.937999999999999,0.0,3.796,3.796,3.796,90,90,90,-2.3930000000000002
SiGdO3,Si,Gd,cubic,-1.291,2.056,0.01,15.968,0.0,4.306,4.306,4.306,90,90,90,-6.1129999999999995
SiGeO3,Si,Ge,cubic,-1.121,1.29,-,10.332,1.2209999999999999,3.724,3.724,3.724,90,90,90,3.3989999999999996
SiHfO3,Si,Hf,cubic,-2.188,1.0490000000000002,0,13.369000000000002,1.454,4.058,4.058,4.058,90,90,90,4.313
SiHgO3,Si,Hg,cubic,0.311,2.3369999999999997,-,13.921,0.0,4.114,4.114,4.114,90,90,90,-7.102
SiHoO3,Si,Ho,cubic,-1.406,1.962,0.2,15.342,0.0,4.249,4.249,4.249,90,90,90,-5.5360000000000005
SiInO3,Si,In,cubic,-0.48700000000000004,1.972,-,13.705,0.0,4.092,4.092,4.092,90,90,90,-4.537
SiIrO3,Si,Ir,cubic,-0.35,1.8130000000000002,0.007,11.865,0.0,3.9,3.9,3.9,90,90,90,0.304
SiKO3,Si,K,cubic,0.953,3.438,-,14.85,0.0,4.203,4.203,4.203,90,90,90,-14.07
SiLaO3,Si,La,cubic,-1.177,2.169,-0.149,17.65,0.0,4.452,4.452,4.452,90,90,90,-6.082000000000001
SiLiO3,Si,Li,cubic,-0.177,2.401,-,8.381,0.0,3.473,3.473,3.473,90,90,90,-9.387
SiLuO3,Si,Lu,cubic,-1.524,1.905,-0.195,14.597000000000001,0.0,4.179,4.179,4.179,90,90,90,-4.928
SiMgO3,Si,Mg,cubic,-0.738,2.34,-,10.873,0.0,3.788,3.788,3.788,90,90,90,-7.28
SiMnO3,Si,Mn,cubic,-1.04,1.6740000000000002,0.602,10.455,0.0,3.739,3.739,3.739,90,90,90,-1.849
SiMoO3,Si,Mo,cubic,-1.2429999999999999,1.248,0.001,12.067,0.0,3.922,3.922,3.922,90,90,90,3.585
SiNaO3,Si,Na,orthorhombic,-2.283,0.226,-,11.325,0.583,4.918,5.456,8.442,90,90,90,-14.205
SiNbO3,Si,Nb,cubic,-1.6540000000000001,1.052,0.001,12.85,0.0,4.005,4.005,4.005,90,90,90,4.173
SiNdO3,Si,Nd,cubic,-1.131,2.162,-0.144,17.24,0.0,4.417,4.417,4.417,90,90,90,-6.481
SiNiO3,Si,Ni,cubic,-0.37,1.994,0.157,9.641,0.0,3.639,3.639,3.639,90,90,90,-4.359
SiNpO3,Si,Np,cubic,-1.659,1.489,0.569,16.033,0.0,4.312,4.312,4.312,90,90,90,1.255
SiOsO3,Si,Os,cubic,-0.537,1.656,0.2,11.8,0.0,3.893,3.893,3.893,90,90,90,1.39
SiPaO3,Si,Pa,cubic,-1.7990000000000002,1.022,0.006,16.608,0.0,4.363,4.363,4.363,90,90,90,3.342
SiPbO3,Si,Pb,cubic,-0.36700000000000005,2.036,-,14.624,0.0,4.182,4.182,4.182,90,90,90,-3.9530000000000003
SiPdO3,Si,Pd,cubic,-0.132,1.972,-,11.917,0.0,3.906,3.906,3.906,90,90,90,-1.5859999999999999
SiPmO3,Si,Pm,cubic,-1.176,2.045,0,16.774,0.0,4.377,4.377,4.377,90,90,90,-6.428999999999999
SiPrO3,Si,Pr,cubic,-1.084,2.0869999999999997,-0.133,17.594,0.0,4.447,4.447,4.447,90,90,90,-6.586
SiPtO3,Si,Pt,cubic,-0.14300000000000002,1.9380000000000002,0.001,12.257,0.0,3.943,3.943,3.943,90,90,90,-0.6859999999999999
SiPuO3,Si,Pu,cubic,-1.702,1.4980000000000002,0.799,16.238,0.0,4.33,4.33,4.33,90,90,90,2.6430000000000002
SiRbO3,Si,Rb,cubic,0.9329999999999999,3.4160000000000004,-,15.411,0.0,4.255,4.255,4.255,90,90,90,-16.921
SiReO3,Si,Re,cubic,-0.889,1.4680000000000002,0,11.886,0.0,3.902,3.902,3.902,90,90,90,1.9909999999999999
SiRhO3,Si,Rh,cubic,-0.39,1.765,0.012,11.664000000000001,0.0,3.878,3.878,3.878,90,90,90,0.272
SiRuO3,Si,Ru,cubic,-0.598,1.626,0.307,11.668,0.0,3.878,3.878,3.878,90,90,90,1.5530000000000002
SiSbO3,Si,Sb,cubic,-0.8140000000000001,1.556,-,13.242,0.0,4.046,4.046,4.046,90,90,90,2.04
SiScO3,Si,Sc,cubic,-1.5730000000000002,1.736,0.003,13.057,0.0,4.027,4.027,4.027,90,90,90,-4.334
Si2O3,Si,Si,cubic,-1.7630000000000001,1.003,-,8.977,1.921,3.554,3.554,3.554,90,90,90,5.683
SiSmO3,Si,Sm,cubic,-1.203,2.031,0,16.532,0.0,4.356,4.356,4.356,90,90,90,-6.367999999999999
SiSnO3,Si,Sn,cubic,-1.023,1.436,-,12.901,1.755,4.01,4.01,4.01,90,90,90,2.7119999999999997
SiSrO3,Si,Sr,cubic,-0.20199999999999999,3.075,-,16.907,0.0,4.389,4.389,4.389,90,90,90,-10.947000000000001
SiTaO3,Si,Ta,cubic,-1.8419999999999999,0.937,0.001,12.639000000000001,0.0,3.983,3.983,3.983,90,90,90,4.52
SiTbO3,Si,Tb,cubic,-1.193,1.97,0.009,15.745,0.0,4.286,4.286,4.286,90,90,90,-5.984
SiTcO3,Si,Tc,cubic,-0.907,1.4469999999999998,0.004,11.744000000000002,0.0,3.887,3.887,3.887,90,90,90,2.295
SiTeO3,Si,Te,cubic,-0.499,1.736,-,14.234000000000002,0.0,4.144,4.144,4.144,90,90,90,1.304
SiThO3,Si,Th,cubic,-1.9140000000000001,1.568,0,18.723,0.0,4.541,4.541,4.541,90,90,90,1.893
SiTiO3,Si,Ti,cubic,-1.964,1.0,0,11.402999999999999,1.725,3.849,3.849,3.849,90,90,90,1.685
SiTlO3,Si,Tl,cubic,0.036000000000000004,2.226,-,14.425,0.0,4.163,4.163,4.163,90,90,90,-6.045
SiTmO3,Si,Tm,cubic,-1.474,1.911,0.21,14.950999999999999,0.0,4.213,4.213,4.213,90,90,90,-5.22
SiUO3,Si,U,cubic,-1.992,1.23,0.077,16.028,0.0,4.311,4.311,4.311,90,90,90,3.51
SiVO3,Si,V,cubic,-1.492,1.2819999999999998,0.2,10.835,0.0,3.784,3.784,3.784,90,90,90,0.215
SiWO3,Si,W,cubic,-1.2990000000000002,1.198,0.001,12.122,0.0,3.928,3.928,3.928,90,90,90,3.555
SiYO3,Si,Y,cubic,-1.338,2.022,0.21,15.758,0.0,4.287,4.287,4.287,90,90,90,-5.755
SiYbO3,Si,Yb,orthorhombic,-3.2230000000000003,0.055999999999999994,-,11.741,3.964,4.872,4.969,9.701,90,90,90,-8.896
SiZnO3,Si,Zn,cubic,-0.308,2.215,-,10.825999999999999,0.0,3.783,3.783,3.783,90,90,90,-6.175
SiZrO3,Si,Zr,cubic,-1.995,1.137,0,13.933,1.469,4.115,4.115,4.115,90,90,90,3.8989999999999996
SmAcO3,Sm,Ac,cubic,-2.298,1.3419999999999999,0,20.308,0.0,4.665,4.665,4.665,90,90,90,1.391
SmAgO3,Sm,Ag,orthorhombic,-1.9240000000000002,0.039,0,13.064,0.0,5.524,6.009,7.871,90,90,90,-0.168
SmAlO3,Sm,Al,orthorhombic,-3.537,-0.054000000000000006,0,10.494000000000002,4.871,5.288,5.305,7.481,90,90,90,6.412999999999999
SmAsO3,Sm,As,cubic,-2.008,0.639,0,12.948,0.0,4.015,4.015,4.015,90,90,90,2.469
SmAuO3,Sm,Au,cubic,-1.405,0.631,0,13.883,0.0,4.11,4.11,4.11,90,90,90,-0.273
SmBO3,Sm,B,cubic,-2.474,0.8490000000000001,0,8.649,2.677,3.51,3.51,3.51,90,90,90,5.211
SmBaO3,Sm,Ba,orthorhombic,-2.733,0.29600000000000004,0.112,19.204,0.0,6.032,6.058,10.51,90,90,90,-5.106
SmBeO3,Sm,Be,tetragonal,-2.755,0.282,0.043,9.86,0.0,3.39,3.39,4.289,90,90,90,-0.59
SmBiO3,Sm,Bi,cubic,-1.6480000000000001,0.94,0,16.659000000000002,0.0,4.367,4.367,4.367,90,90,90,1.195
SmCaO3,Sm,Ca,cubic,-2.27,0.872,0.2,14.23,0.0,4.144,4.144,4.144,90,90,90,-2.299
SmCdO3,Sm,Cd,cubic,-1.709,0.636,0,13.863,0.0,4.108,4.108,4.108,90,90,90,-0.615
SmCeO3,Sm,Ce,cubic,-2.444,1.167,0,18.747,0.779,4.543,4.543,4.543,90,90,90,-1.929
SmCoO3,Sm,Co,orthorhombic,-2.487,-0.009000000000000001,0.4,11.162,0.0,5.289,5.546,7.61,90,90,90,2.931
SmCrO3,Sm,Cr,orthorhombic,-3.1510000000000002,-0.06,0.6,11.543,2.441,5.364,5.595,7.691,90,90,90,4.538
SmCuO3,Sm,Cu,orthorhombic,-2.218,0.047,0,11.235999999999999,0.0,5.277,5.749,7.409,90,90,90,1.081
SmDyO3,Sm,Dy,cubic,-3.0269999999999997,0.7490000000000001,0,15.620999999999999,1.796,4.275,4.275,4.275,90,90,90,4.2330000000000005
SmErO3,Sm,Er,cubic,-3.123,0.6759999999999999,0,15.136,2.0140000000000002,4.23,4.23,4.23,90,90,90,4.502
SmEuO3,Sm,Eu,cubic,-2.26,0.9490000000000001,0.117,15.547,0.0,4.268,4.268,4.268,90,90,90,-1.703
SmFeO3,Sm,Fe,orthorhombic,-2.734,-0.03,1,11.7,1.151,5.383,5.638,7.71,90,90,90,3.6239999999999997
SmGaO3,Sm,Ga,orthorhombic,-2.9210000000000003,0.006,0,11.495999999999999,4.124,5.362,5.586,7.676,90,90,90,4.735
SmGdO3,Sm,Gd,cubic,-2.915,0.8320000000000001,0,16.192,1.508,4.326,4.326,4.326,90,90,90,1.26
SmGeO3,Sm,Ge,orthorhombic,-2.531,0.17,0,12.470999999999998,0.0,5.442,5.821,7.874,90,90,90,3.0639999999999996
SmHfO3,Sm,Hf,orthorhombic,-3.408,0.171,0.005,12.98,0.0,5.55,6.089,7.682,90,90,90,4.8389999999999995
SmHgO3,Sm,Hg,cubic,-1.2990000000000002,0.733,-0.001,14.825999999999999,0.0,4.201,4.201,4.201,90,90,90,-0.584
SmHoO3,Sm,Ho,cubic,-3.077,0.711,0,15.373,1.81,4.252,4.252,4.252,90,90,90,4.3839999999999995
SmInO3,Sm,In,cubic,-2.231,0.541,0,13.327,1.604,4.054,4.054,4.054,90,90,90,3.031
SmIrO3,Sm,Ir,cubic,-1.7409999999999999,0.589,0,12.509,0.0,3.969,3.969,3.969,90,90,90,-0.33399999999999996
SmKO3,Sm,K,orthorhombic,-2.137,0.29100000000000004,0,17.217,1.5959999999999999,6.325,6.401,8.505,90,90,90,-3.3939999999999997
SmLaO3,Sm,La,cubic,-2.5660000000000003,1.141,0,18.469,0.557,4.52,4.52,4.52,90,90,90,2.17
SmLiO3,Sm,Li,orthorhombic,-2.24,0.292,0.4,10.88,0.0,5.051,5.823,7.399,90,90,90,-0.9309999999999999
SmLuO3,Sm,Lu,cubic,-3.26,0.5720000000000001,0,14.456,1.986,4.166,4.166,4.166,90,90,90,4.842
SmMgO3,Sm,Mg,orthorhombic,-2.8810000000000002,0.157,0.2,11.798,0.0,5.346,5.748,7.678,90,90,90,-0.9640000000000001
SmMnO3,Sm,Mn,orthorhombic,-2.9130000000000003,0.001,0.8,11.743,0.0,5.376,5.749,7.599,90,90,90,3.73
SmMoO3,Sm,Mo,orthorhombic,-2.637,0.204,0.591,12.69,0.0,5.47,5.883,7.887,90,90,90,2.336
SmNaO3,Sm,Na,cubic,-1.535,0.8959999999999999,0.4,12.374,0.0,3.955,3.955,3.955,90,90,90,-2.28