formula,atom a,atom b,lowest distortion,e_form,e_hull,mu_b,vpa,gap pbe,a,b,c,alpha,beta,gamma,e_form oxygen
BiPdO3,Bi,Pd,orthorhombic,-1.006,0.025,-,12.769,0.0,5.512,5.954,7.781,90,90,90,0.45399999999999996
BiPmO3,Bi,Pm,cubic,-1.744,0.831,0.006,17.691,0.0,4.456,4.456,4.456,90,90,90,-2.951
BiPrO3,Bi,Pr,cubic,-1.6059999999999999,0.919,0.02,18.538,0.0,4.526,4.526,4.526,90,90,90,-3.821
BiPtO3,Bi,Pt,cubic,-0.595,0.536,0,13.273,0.0,4.049,4.049,4.049,90,90,90,0.244
BiPuO3,Bi,Pu,cubic,-2.053,0.5,0.776,16.778,0.0,4.378,4.378,4.378,90,90,90,2.16
BiRbO3,Bi,Rb,orthorhombic,-1.205,0.218,-,18.866,0.971,5.115,5.768,12.79,90,90,90,-9.484
BiReO3,Bi,Re,cubic,-1.04,0.506,0.02,12.764000000000001,0.0,3.996,3.996,3.996,90,90,90,1.965
BiRhO3,Bi,Rh,orthorhombic,-1.182,0.055999999999999994,0,12.332,0.513,5.403,5.865,7.783,90,90,90,0.7070000000000001
BiRuO3,Bi,Ru,orthorhombic,-1.176,0.138,0.192,12.35,0.0,5.398,5.847,7.825,90,90,90,1.594
BiSbO3,Bi,Sb,orthorhombic,-1.365,0.171,-,15.300999999999998,0.0,5.783,6.291,8.413,90,90,90,1.105
BiScO3,Bi,Sc,orthorhombic,-2.608,0.033,0,13.075,3.008,5.56,5.855,8.033,90,90,90,1.9569999999999999
BiSiO3,Bi,Si,cubic,-1.645,0.727,-,10.735999999999999,0.0,3.772,3.772,3.772,90,90,90,2.725
BiSmO3,Bi,Sm,cubic,-1.786,0.8009999999999999,0.001,17.358,0.0,4.427,4.427,4.427,90,90,90,-2.6460000000000004
BiSnO3,Bi,Sn,orthorhombic,-1.465,0.22,-,14.635,0.0,5.71,6.189,8.283,90,90,90,3.114
BiSrO3,Bi,Sr,orthorhombic,-1.945,0.156,-,16.905,0.0,6.059,6.233,8.952,90,90,90,-5.909
BiTaO3,Bi,Ta,orthorhombic,-1.9780000000000002,0.491,0,13.215,0.0,5.638,5.732,8.179,90,90,90,3.658
BiTbO3,Bi,Tb,cubic,-1.83,0.688,0,16.361,0.0,4.341,4.341,4.341,90,90,90,-1.455
BiTcO3,Bi,Tc,orthorhombic,-1.3030000000000002,0.209,0.4,12.538,0.0,5.427,5.884,7.854,90,90,90,2.408
BiTeO3,Bi,Te,cubic,-0.78,0.588,-,15.345999999999998,0.0,4.249,4.249,4.249,90,90,90,-0.073
BiThO3,Bi,Th,cubic,-2.299,0.735,0,19.105999999999998,0.0,4.571,4.571,4.571,90,90,90,1.158
BiTiO3,Bi,Ti,rhombohedral,-2.2430000000000003,0.21,0.005,12.05,0.0,5.38,5.38,5.38,64.3,64.3,64.3,4.05
BiTlO3,Bi,Tl,orthorhombic,-1.1540000000000001,0.052000000000000005,-,14.87,1.0590000000000002,5.777,6.247,8.241,90,90,90,-1.5190000000000001
BiTmO3,Bi,Tm,cubic,-2.135,0.568,0,15.235,0.282,4.239,4.239,4.239,90,90,90,-0.198
BiUO3,Bi,U,cubic,-1.7169999999999999,1.0659999999999998,0.245,23.213,0.0,4.878,4.878,4.878,90,90,90,-2.322
BiVO3,Bi,V,orthorhombic,-2.045,0.006999999999999999,0.4,12.262,0.8909999999999999,5.448,5.75,7.828,90,90,90,3.34
BiWO3,Bi,W,cubic,-1.4140000000000001,0.5429999999999999,0,12.987,0.0,4.019,4.019,4.019,90,90,90,3.201
BiYO3,Bi,Y,cubic,-1.982,0.659,0,16.089000000000002,0.0,4.317,4.317,4.317,90,90,90,-0.9640000000000001
BiYbO3,Bi,Yb,cubic,-1.421,0.799,-,14.370999999999999,0.0,4.157,4.157,4.157,90,90,90,-2.28
BiZnO3,Bi,Zn,orthorhombic,-1.3230000000000002,0.107,-,12.119000000000002,0.0,5.385,5.721,7.867,90,90,90,-0.418
BiZrO3,Bi,Zr,orthorhombic,-2.388,0.284,0,14.065999999999999,0.0,5.774,5.784,8.422,90,90,90,3.628
CaAcO3,Ca,Ac,cubic,-2.373,0.708,0.084,19.615,0.0,4.612,4.612,4.612,90,90,90,-0.53
CaAgO3,Ca,Ag,orthorhombic,-1.347,0.063,-,12.431,0.0,5.507,5.819,7.759,90,90,90,-0.905
CaAlO3,Ca,Al,cubic,-2.884,0.078,-,10.252,0.0,3.715,3.715,3.715,90,90,90,0.239
CaAsO3,Ca,As,orthorhombic,-2.124,0.192,-,11.497,0.0,5.387,5.547,7.695,90,90,90,2.158
CaAuO3,Ca,Au,orthorhombic,-1.4140000000000001,0.155,-,12.485,0.0,5.551,5.878,7.653,90,90,90,-0.703
CaBO3,Ca,B,cubic,-1.8730000000000002,0.9109999999999999,-,8.157,0.0,3.442,3.442,3.442,90,90,90,-1.2229999999999999
CaBaO3,Ca,Ba,cubic,-1.425,1.125,-,19.340999999999998,0.0,4.59,4.59,4.59,90,90,90,-1.9780000000000002
CaBeO3,Ca,Be,orthorhombic,-2.059,0.43200000000000005,-,9.003,0.0,4.712,5.323,7.18,90,90,90,-1.895
CaBiO3,Ca,Bi,orthorhombic,-2.094,-0.037000000000000005,-,14.423,0.0,5.758,6.015,8.329,90,90,90,1.4409999999999998
CaCeO3,Ca,Ce,cubic,-2.351,0.7,0.2,18.285,0.0,4.505,4.505,4.505,90,90,90,-1.45
CaCoO3,Ca,Co,rhombohedral,-1.885,0.037000000000000005,0.576,10.255,0.0,5.197,5.197,5.197,61.5,61.5,61.5,0.72
CaCrO3,Ca,Cr,orthorhombic,-2.611,0.054000000000000006,0.4,11.068,0.541,5.302,5.54,7.536,90,90,90,1.456
CaCsO3,Ca,Cs,cubic,-0.634,1.287,-,18.02,0.0,4.483,4.483,4.483,90,90,90,-1.536
CaCuO3,Ca,Cu,rhombohedral,-1.537,0.09,-,10.605,0.0,5.306,5.306,5.306,60.2,60.2,60.2,-0.449
CaDyO3,Ca,Dy,orthorhombic,-3.036,0.18,0.2,14.165999999999999,0.0,5.895,6.119,7.855,90,90,90,-1.2229999999999999
CaErO3,Ca,Er,orthorhombic,-3.068,0.172,0.2,13.907,0.0,5.866,6.086,7.791,90,90,90,-3.292
CaEuO3,Ca,Eu,cubic,-1.97,0.693,0.016,14.975999999999999,0.0,4.215,4.215,4.215,90,90,90,-1.5859999999999999
CaFeO3,Ca,Fe,rhombohedral,-2.195,0.002,0.8,10.664000000000001,0.0,5.287,5.287,5.287,60.9,60.9,60.9,1.1320000000000001
CaGaO3,Ca,Ga,rhombohedral,-2.197,0.20199999999999999,-,11.139000000000001,0.0,5.292,5.292,5.292,62.8,62.8,62.8,-0.7490000000000001
CaGdO3,Ca,Gd,cubic,-2.638,0.5489999999999999,0.2,16.276,0.0,4.334,4.334,4.334,90,90,90,-1.2670000000000001
CaHfO3,Ca,Hf,orthorhombic,-3.6689999999999996,-0.087,0,12.605,4.716,5.541,5.724,7.948,90,90,90,6.417000000000001
CaHgO3,Ca,Hg,cubic,-1.037,0.523,-,14.232000000000001,0.0,4.144,4.144,4.144,90,90,90,-1.148
CaInO3,Ca,In,orthorhombic,-2.044,0.187,-,13.113,0.0,5.763,5.99,7.598,90,90,90,-1.23
CaIrO3,Ca,Ir,orthorhombic,-1.919,0.023,0.027,11.479000000000001,0.0,5.312,5.64,7.662,90,90,90,0.9790000000000001
CaKO3,Ca,K,cubic,-0.42100000000000004,1.506,-,15.249,0.0,4.24,4.24,4.24,90,90,90,-3.7969999999999997
CaLiO3,Ca,Li,cubic,-1.3769999999999998,0.616,-,9.924,0.0,3.675,3.675,3.675,90,90,90,-2.2359999999999998
CaLuO3,Ca,Lu,orthorhombic,-3.111,0.161,0.2,13.51,0.0,5.798,6.017,7.746,90,90,90,-0.9890000000000001
CaMgO3,Ca,Mg,orthorhombic,-2.227,0.256,-,11.595999999999998,0.0,3.838,7.126,8.479,90,90,90,-1.62
CaMnO3,Ca,Mn,tetragonal,-2.349,0.094,0.605,11.353,0.0,3.794,3.794,3.943,90,90,90,1.209
CaMoO3,Ca,Mo,orthorhombic,-2.59,0.064,0.028,11.802,0.0,5.41,5.62,7.764,90,90,90,4.546
CaNdO3,Ca,Nd,cubic,-2.455,0.6970000000000001,0.2,17.345,0.0,4.426,4.426,4.426,90,90,90,-1.416
CaNiO3,Ca,Ni,rhombohedral,-1.67,0.131,0,10.45,0.0,5.2,5.2,5.2,62.3,62.3,62.3,-0.18899999999999997
CaNpO3,Ca,Np,cubic,-2.892,0.613,0.6,16.845,0.0,4.383,4.383,4.383,90,90,90,3.625
CaOsO3,Ca,Os,orthorhombic,-1.995,0.084,0.184,11.469000000000001,0.0,5.324,5.607,7.684,90,90,90,2.187
CaPaO3,Ca,Pa,rhombohedral,-3.1489999999999996,0.039,0.2,16.035,1.851,6.124,6.124,6.124,59.4,59.4,59.4,5.379
CaPbO3,Ca,Pb,orthorhombic,-2.017,0.038,-,13.69,1.258,5.675,5.926,8.142,90,90,90,1.239
CaPdO3,Ca,Pd,orthorhombic,-1.714,-0.099,-,11.604000000000001,0.423,5.347,5.653,7.677,90,90,90,-0.257
CaPmO3,Ca,Pm,cubic,-2.511,0.619,0.2,17.023,0.0,4.399,4.399,4.399,90,90,90,-1.382
CaPrO3,Ca,Pr,cubic,-2.407,0.672,0.2,17.748,0.0,4.46,4.46,4.46,90,90,90,-1.401
CaPtO3,Ca,Pt,orthorhombic,-1.797,0.047,0,11.714,0.8759999999999999,5.345,5.692,7.7,90,90,90,-0.262
CaRbO3,Ca,Rb,cubic,-0.431,1.484,-,15.663,0.0,4.278,4.278,4.278,90,90,90,-2.951
CaReO3,Ca,Re,orthorhombic,-2.248,0.11,0.129,11.585999999999999,0.0,5.343,5.628,7.706,90,90,90,2.781
CaRhO3,Ca,Rh,orthorhombic,-1.9340000000000002,0.008,0.2,11.592,0.0,5.347,5.633,7.697,90,90,90,1.092
CaRuO3,Ca,Ru,orthorhombic,-2.073,-0.017,0.397,11.614,0.0,5.371,5.61,7.708,90,90,90,2.353
CaSbO3,Ca,Sb,orthorhombic,-2.276,0.11699999999999999,-,13.280999999999999,0.0,5.612,5.854,8.085,90,90,90,2.491
CaScO3,Ca,Sc,orthorhombic,-3.0589999999999997,0.14,0.2,12.549000000000001,0.0,5.624,5.832,7.652,90,90,90,-0.8059999999999999
CaSiO3,Ca,Si,rhombohedral,-3.0580000000000003,0.23399999999999999,-,9.158999999999999,4.3389999999999995,5.054,5.054,5.054,60.1,60.1,60.1,6.171
CaSmO3,Ca,Sm,cubic,-2.543,0.599,0.2,16.855,0.0,4.384,4.384,4.384,90,90,90,-1.367
CaSnO3,Ca,Sn,orthorhombic,-2.531,0.015,-,12.503,2.74,5.529,5.706,7.927,90,90,90,3.4789999999999996
CaSrO3,Ca,Sr,cubic,-1.5490000000000002,1.025,-,17.11,0.0,4.406,4.406,4.406,90,90,90,-2.813
CaTaO3,Ca,Ta,orthorhombic,-3.097,0.078,0,12.222999999999999,0.0,5.489,5.651,7.881,90,90,90,5.4479999999999995
CaTbO3,Ca,Tb,cubic,-2.541,0.53,0.2,15.977,0.0,4.307,4.307,4.307,90,90,90,-1.2429999999999999
CaTcO3,Ca,Tc,orthorhombic,-2.322,-0.024,0.346,11.627,0.0,5.37,5.601,7.731,90,90,90,3.4189999999999996
CaTeO3,Ca,Te,orthorhombic,-2.037,0.193,-,13.74,0.0,5.659,5.946,8.167,90,90,90,2.7030000000000003
CaThO3,Ca,Th,cubic,-3.2030000000000003,0.617,0,18.935,1.6030000000000002,4.558,4.558,4.558,90,90,90,5.025
CaTiO3,Ca,Ti,orthorhombic,-3.367,-0.046,0,11.199000000000002,2.356,5.355,5.478,7.635,90,90,90,5.0680000000000005
CaTlO3,Ca,Tl,orthorhombic,-1.5959999999999999,0.17,-,13.860999999999999,0.0,5.686,6.012,8.109,90,90,90,-1.03
CaTmO3,Ca,Tm,orthorhombic,-3.089,0.16699999999999998,0.2,13.761,0.0,5.84,6.061,7.775,90,90,90,-1.074
CaVO3,Ca,V,orthorhombic,-2.9010000000000002,-0.013999999999999999,0.2,10.892000000000001,0.435,5.28,5.432,7.594,90,90,90,3.563
CaWO3,Ca,W,orthorhombic,-2.568,0.195,0.003,11.873,0.0,5.408,5.642,7.784,90,90,90,4.338
CaYO3,Ca,Y,cubic,-2.6660000000000004,0.529,0.2,15.844000000000001,0.0,4.295,4.295,4.295,90,90,90,-1.37
CaYbO3,Ca,Yb,cubic,-2.0469999999999997,0.66,-,14.129000000000001,0.0,4.134,4.134,4.134,90,90,90,-1.714
CaZnO3,Ca,Zn,orthorhombic,-1.703,0.26,-,11.654000000000002,0.0,5.426,5.661,7.588,90,90,90,-1.1420000000000001
CaZrO3,Ca,Zr,orthorhombic,-3.517,-0.059000000000000004,0,12.962,4.083,5.582,5.787,8.025,90,90,90,6.0120000000000005
CdAcO3,Cd,Ac,orthorhombic,-2.106,0.179,0.2,16.436,0.0,6.085,6.169,8.756,90,90,90,-2.8510000000000004
CdAgO3,Cd,Ag,orthorhombic,-0.485,0.122,-,12.103,0.0,5.448,5.649,7.866,90,90,90,-1.44
CdAlO3,Cd,Al,orthorhombic,-1.9669999999999999,0.16,-,10.187000000000001,0.0,5.179,5.341,7.366,90,90,90,-0.406
CdAsO3,Cd,As,orthorhombic,-1.228,0.2,-,11.462,0.0,5.378,5.52,7.722,90,90,90,1.426
CdAuO3,Cd,Au,orthorhombic,-0.5489999999999999,0.086,-,12.338,0.0,5.454,5.631,8.035,90,90,90,-1.0490000000000002
CdBO3,Cd,B,cubic,-0.836,1.045,-,8.316,0.0,3.464,3.464,3.464,90,90,90,-1.768
CdBaO3,Cd,Ba,orthorhombic,-1.535,0.23,-,17.186,0.843,6.481,6.492,8.169,90,90,90,-6.3
CdBeO3,Cd,Be,cubic,-1.07,0.611,-,9.026,0.0,3.56,3.56,3.56,90,90,90,-2.662
CdBiO3,Cd,Bi,orthorhombic,-1.258,0.006999999999999999,-,14.164000000000001,0.0,5.758,5.913,8.321,90,90,90,-0.486
CdCaO3,Cd,Ca,cubic,-0.816,0.982,-,14.897,0.0,4.207,4.207,4.207,90,90,90,-4.196000000000001
Cd2O3,Cd,Cd,cubic,-0.301,0.688,-,13.686,0.0,4.09,4.09,4.09,90,90,90,-2.6910000000000003
CdCeO3,Cd,Ce,cubic,-1.4,0.855,0.215,18.344,0.0,4.51,4.51,4.51,90,90,90,-3.427
CdCoO3,Cd,Co,rhombohedral,-0.98,0.141,0.195,10.111,0.0,5.167,5.167,5.167,61.6,61.6,61.6,-0.45799999999999996
CdCrO3,Cd,Cr,orthorhombic,-1.6840000000000002,0.138,0.4,10.58,0.336,5.255,5.359,7.514,90,90,90,0.721
CdCsO3,Cd,Cs,cubic,0.302,1.439,-,17.462,0.0,4.436,4.436,4.436,90,90,90,-2.614
CdCuO3,Cd,Cu,orthorhombic,-0.669,0.14800000000000002,-,10.392000000000001,0.0,5.213,5.355,7.447,90,90,90,-1.105
CdDyO3,Cd,Dy,cubic,-1.7309999999999999,0.688,0.203,15.738,0.0,4.285,4.285,4.285,90,90,90,-2.481
CdErO3,Cd,Er,cubic,-1.7890000000000001,0.653,0.202,15.362,0.0,4.251,4.251,4.251,90,90,90,-2.29
CdEuO3,Cd,Eu,orthorhombic,-1.588,0.265,0.41,14.49,0.0,5.858,6.064,8.158,90,90,90,-3.6710000000000003
CdFeO3,Cd,Fe,orthorhombic,-1.2830000000000001,0.077,0.799,10.599,0.0,5.272,5.348,7.518,90,90,90,0.20800000000000002
CdGaO3,Cd,Ga,orthorhombic,-1.3559999999999999,0.21,-,11.008,0.0,5.277,5.503,7.581,90,90,90,-1.445
CdGdO3,Cd,Gd,cubic,-1.6669999999999998,0.7240000000000001,0.204,16.256,0.0,4.332,4.332,4.332,90,90,90,-2.6689999999999996
CdGeO3,Cd,Ge,orthorhombic,-1.588,0.114,-,10.494000000000002,1.2009999999999998,5.259,5.32,7.501,90,90,90,3.0669999999999997
CdHfO3,Cd,Hf,rhombohedral,-2.773,0.025,0,12.535,2.653,5.665,5.665,5.665,58.9,58.9,58.9,2.526
CdHgO3,Cd,Hg,cubic,-0.055,0.636,-,14.116,0.0,4.133,4.133,4.133,90,90,90,-2.201
CdHoO3,Cd,Ho,cubic,-1.761,0.67,0.203,15.542,0.0,4.267,4.267,4.267,90,90,90,-2.387
CdInO3,Cd,In,cubic,-0.845,0.594,-,13.850999999999999,0.0,4.107,4.107,4.107,90,90,90,-2.206
CdIrO3,Cd,Ir,orthorhombic,-1.004,0.129,0.169,11.421,0.0,5.417,5.443,7.747,90,90,90,1.0270000000000001
CdKO3,Cd,K,cubic,0.585,1.7280000000000002,-,15.07,0.0,4.224,4.224,4.224,90,90,90,-4.644
CdLaO3,Cd,La,cubic,-1.547,0.8029999999999999,0.211,17.671,0.0,4.454,4.454,4.454,90,90,90,-2.966
CdLiO3,Cd,Li,cubic,-0.38299999999999995,0.8270000000000001,-,9.937000000000001,0.0,3.676,3.676,3.676,90,90,90,-3.8310000000000004
CdLuO3,Cd,Lu,cubic,-1.88,0.595,0.201,14.805,0.0,4.199,4.199,4.199,90,90,90,-1.984
CdMgO3,Cd,Mg,cubic,-1.074,0.617,-,11.555,0.0,3.866,3.866,3.866,90,90,90,-2.735
CdMnO3,Cd,Mn,orthorhombic,-1.514,0.1,0.6,10.495999999999999,0.22899999999999998,5.259,5.338,7.478,90,90,90,0.247
CdMoO3,Cd,Mo,rhombohedral,-1.6669999999999998,0.156,0.033,11.652000000000001,0.0,5.382,5.382,5.382,62.6,62.6,62.6,4.417
CdNaO3,Cd,Na,cubic,0.149,1.27,-,12.815,0.0,4.002,4.002,4.002,90,90,90,-4.163
CdNbO3,Cd,Nb,orthorhombic,-2.0980000000000003,0.154,0.001,12.265999999999998,0.0,5.562,5.586,7.895,90,90,90,4.948
CdNdO3,Cd,Nd,cubic,-1.495,0.873,0.208,17.518,0.0,4.441,4.441,4.441,90,90,90,-3.145
CdNiO3,Cd,Ni,orthorhombic,-0.799,0.192,0,10.305,0.0,5.206,5.372,7.369,90,90,90,-1.229
CdNpO3,Cd,Np,cubic,-2.1390000000000002,0.581,0.432,16.076,0.0,4.316,4.316,4.316,90,90,90,1.886
CdOsO3,Cd,Os,rhombohedral,-1.0859999999999999,0.156,0.006,11.311,0.0,5.287,5.287,5.287,63.7,63.7,63.7,2.412
CdPaO3,Cd,Pa,rhombohedral,-2.367,-0.013000000000000001,0.2,15.767999999999999,0.51,6.159,6.159,6.159,58,58,58,4.126
CdPbO3,Cd,Pb,orthorhombic,-1.177,0.040999999999999995,-,13.511,0.0,5.657,5.832,8.19,90,90,90,-0.6659999999999999
CdPdO3,Cd,Pd,orthorhombic,-0.8270000000000001,0.064,-,11.46,0.0,5.374,5.561,7.669,90,90,90,-1.162
CdPmO3,Cd,Pm,cubic,-1.5490000000000002,0.784,0.207,17.203,0.0,4.414,4.414,4.414,90,90,90,-2.998
CdPrO3,Cd,Pr,cubic,-1.452,0.831,0.211,17.914,0.0,4.474,4.474,4.474,90,90,90,-3.287
CdPtO3,Cd,Pt,orthorhombic,-0.903,0.062,0.001,11.619000000000002,0.7020000000000001,5.418,5.558,7.717,90,90,90,-0.55
CdPuO3,Cd,Pu,orthorhombic,-2.495,-0.044000000000000004,0.8,14.210999999999999,1.77,5.726,5.903,8.408,90,90,90,2.051
CdRbO3,Cd,Rb,cubic,0.561,1.692,-,15.565,0.0,4.269,4.269,4.269,90,90,90,-3.978
CdReO3,Cd,Re,rhombohedral,-1.3430000000000002,0.17800000000000002,0.008,11.399000000000001,0.0,5.281,5.281,5.281,64.3,64.3,64.3,3.403
CdRhO3,Cd,Rh,orthorhombic,-1.021,0.096,0.2,11.276,0.0,5.385,5.451,7.683,90,90,90,0.7709999999999999
CdRuO3,Cd,Ru,orthorhombic,-1.1520000000000001,0.102,0.4,11.31,0.0,5.403,5.455,7.676,90,90,90,2.096
CdSbO3,Cd,Sb,orthorhombic,-1.425,0.11,-,13.073,0.0,5.6,5.767,8.095,90,90,90,2.024
CdScO3,Cd,Sc,orthorhombic,-2.209,0.19699999999999998,0.2,12.169,0.0,5.46,5.708,7.811,90,90,90,-1.556
CdSiO3,Cd,Si,tetragonal,-2.094,0.28600000000000003,-,10.33,0.0,3.371,3.371,4.544,90,90,90,4.29
CdSnO3,Cd,Sn,orthorhombic,-1.6740000000000002,0.03,-,12.337,1.055,5.504,5.636,7.954,90,90,90,2.7539999999999996
CdSrO3,Cd,Sr,orthorhombic,-1.605,0.185,-,15.140999999999998,1.0290000000000001,6.266,6.309,7.66,90,90,90,-6.095
CdTaO3,Cd,Ta,rhombohedral,-2.25,0.231,0,12.3,0.0,5.507,5.507,5.507,61.9,61.9,61.9,5.648
CdTbO3,Cd,Tb,cubic,-1.569,0.706,0.204,15.98,0.0,4.307,4.307,4.307,90,90,90,-2.591
CdTcO3,Cd,Tc,orthorhombic,-1.3969999999999998,0.11800000000000001,0.418,11.49,0.0,5.421,5.458,7.767,90,90,90,3.219
CdTeO3,Cd,Te,orthorhombic,-1.18,0.18,-,13.61,0.0,5.675,5.844,8.208,90,90,90,0.735
CdThO3,Cd,Th,cubic,-2.29,0.747,-0.044,18.683,0.0,4.537,4.537,4.537,90,90,90,-1.197
CdTiO3,Cd,Ti,orthorhombic,-2.435,0.046,0,10.987,2.225,5.299,5.449,7.61,90,90,90,3.466
CdTlO3,Cd,Tl,cubic,-0.32799999999999996,0.644,-,14.607000000000001,0.0,4.18,4.18,4.18,90,90,90,-2.407
CdTmO3,Cd,Tm,cubic,-1.83,0.631,0.202,15.144,0.0,4.231,4.231,4.231,90,90,90,-2.166
CdUO3,Cd,U,orthorhombic,-2.67,0.11599999999999999,0.4,14.798,1.056,5.794,5.967,8.561,90,90,90,4.083
CdVO3,Cd,V,orthorhombic,-1.982,0.051,0.2,10.805,0.659,5.282,5.34,7.661,90,90,90,2.427
CdWO3,Cd,W,cubic,-1.682,0.275,0.001,12.325,0.0,3.95,3.95,3.95,90,90,90,5.005
CdYO3,Cd,Y,cubic,-1.6969999999999998,0.701,0.203,15.979000000000001,0.0,4.307,4.307,4.307,90,90,90,-2.582
CdYbO3,Cd,Yb,cubic,-1.058,0.8390000000000001,-,14.045,0.0,4.126,4.126,4.126,90,90,90,-3.301
CdZnO3,Cd,Zn,orthorhombic,-0.8320000000000001,0.322,-,11.044,0.0,5.29,5.523,7.56,90,90,90,-2.119
CdZrO3,Cd,Zr,orthorhombic,-2.635,0.039,0,12.755999999999998,2.77,5.534,5.726,8.05,90,90,90,1.7519999999999998
CeAcO3,Ce,Ac,cubic,-2.4619999999999997,1.088,0,20.385,0.0,4.671,4.671,4.671,90,90,90,1.916
CeAgO3,Ce,Ag,orthorhombic,-1.8769999999999998,-0.004,0,13.692,0.0,5.635,6.027,8.062,90,90,90,0.331
CeAlO3,Ce,Al,rhombohedral,-3.4789999999999996,-0.086,0,10.924000000000001,3.795,5.36,5.36,5.36,60.1,60.1,60.1,6.49
CeAsO3,Ce,As,orthorhombic,-2.3280000000000003,0.239,0,13.684000000000001,0.0,5.632,5.99,8.113,90,90,90,2.958
CeAuO3,Ce,Au,orthorhombic,-1.9180000000000001,-0.017,0,14.164000000000001,0.925,5.756,6.584,7.476,90,90,90,0.265
CeBO3,Ce,B,cubic,-2.358,0.9159999999999999,-0.001,9.283,1.9340000000000002,3.594,3.594,3.594,90,90,90,4.7410000000000005
CeBaO3,Ce,Ba,orthorhombic,-2.675,0.258,0.199,20.007,0.0,6.203,6.229,10.355,90,90,90,-4.398
CeBeO3,Ce,Be,cubic,-2.673,0.27399999999999997,0.2,9.919,0.0,3.674,3.674,3.674,90,90,90,-0.294
CeBiO3,Ce,Bi,cubic,-1.797,0.701,0,17.131,0.0,4.408,4.408,4.408,90,90,90,1.6769999999999998
CeCaO3,Ce,Ca,cubic,-2.39,0.6609999999999999,0.2,14.536,0.0,4.173,4.173,4.173,90,90,90,-1.4509999999999998
CeCdO3,Ce,Cd,orthorhombic,-2.15,0.105,0,14.37,0.0,5.714,6.129,8.207,90,90,90,-0.129
Ce2O3,Ce,Ce,cubic,-2.6039999999999996,0.9159999999999999,0,18.959,0.816,4.56,4.56,4.56,90,90,90,2.825
CeCoO3,Ce,Co,orthorhombic,-2.423,-0.036000000000000004,0.4,11.414000000000001,0.0,5.398,5.475,7.725,90,90,90,3.21
CeCrO3,Ce,Cr,orthorhombic,-3.082,-0.081,0.6,12.068,2.1959999999999997,5.511,5.597,7.825,90,90,90,4.832
CeCuO3,Ce,Cu,orthorhombic,-2.156,-0.07400000000000001,0,11.411,0.0,5.407,5.476,7.708,90,90,90,1.4369999999999998
CeDyO3,Ce,Dy,orthorhombic,-3.65,0.035,0,15.149000000000001,5.053999999999999,5.856,6.095,8.488,90,90,90,4.606
CeErO3,Ce,Er,orthorhombic,-3.6860000000000004,0.023,0,14.812000000000001,4.9719999999999995,5.815,6.057,8.411,90,90,90,4.842
CeEuO3,Ce,Eu,cubic,-2.401,0.718,0.158,15.852,0.0,4.296,4.296,4.296,90,90,90,-1.015
CeFeO3,Ce,Fe,orthorhombic,-2.6689999999999996,-0.084,1,12.214,1.1440000000000001,5.518,5.642,7.847,90,90,90,4.093999999999999
CeGaO3,Ce,Ga,orthorhombic,-2.853,-0.043,0,11.912,3.7060000000000004,5.507,5.545,7.802,90,90,90,5.033
CeGdO3,Ce,Gd,cubic,-3.055,0.601,0,16.458,1.632,4.35,4.35,4.35,90,90,90,4.348
CeGeO3,Ce,Ge,orthorhombic,-2.479,0.215,0,13.068,0.0,5.575,5.848,8.015,90,90,90,3.2969999999999997
CeHfO3,Ce,Hf,orthorhombic,-3.398,0.09,0,13.468,0.0,5.613,5.613,8.55,90,90,90,5.222
CeHgO3,Ce,Hg,orthorhombic,-1.8630000000000002,0.079,0,15.068,0.0,5.723,6.5,8.102,90,90,90,-0.095
CeHoO3,Ce,Ho,orthorhombic,-3.6689999999999996,0.027999999999999997,0,14.992,4.92,5.836,6.076,8.456,90,90,90,4.7219999999999995
CeInO3,Ce,In,orthorhombic,-2.6860000000000004,-0.004,0,14.1,2.9610000000000003,5.713,5.985,8.249,90,90,90,3.53
CeIrO3,Ce,Ir,orthorhombic,-2.1519999999999997,0.087,0,12.777000000000001,0.99,5.443,5.938,7.906,90,90,90,0.43200000000000005
CeKO3,Ce,K,orthorhombic,-1.8969999999999998,0.441,0.4,19.506,0.0,6.267,6.37,9.772,90,90,90,-3.194
CeLaO3,Ce,La,cubic,-2.7260000000000004,0.89,0,18.764,0.48200000000000004,4.544,4.544,4.544,90,90,90,2.7560000000000002
CeLiO3,Ce,Li,orthorhombic,-2.18,0.262,0.4,11.48,0.0,5.269,5.744,7.587,90,90,90,-0.569
CeLuO3,Ce,Lu,orthorhombic,-3.736,0.005,0,14.375,5.074,5.767,5.994,8.318,90,90,90,5.1610000000000005
CeMgO3,Ce,Mg,orthorhombic,-2.825,0.122,0.2,12.385,0.0,5.453,5.793,7.84,90,90,90,-0.376
CeMnO3,Ce,Mn,orthorhombic,-2.8480000000000003,-0.079,0.8,12.222000000000001,0.0,5.503,5.683,7.816,90,90,90,3.949
CeMoO3,Ce,Mo,orthorhombic,-2.575,0.18600000000000003,0.518,13.225999999999999,0.0,5.559,5.941,8.009,90,90,90,3.19
CeNaO3,Ce,Na,cubic,-1.629,0.711,0.4,12.950999999999999,0.0,4.016,4.016,4.016,90,90,90,-1.66