formula,atom a,atom b,lowest distortion,e_form,e_hull,mu_b,vpa,gap pbe,a,b,c,alpha,beta,gamma,e_form oxygen
PdAlO3,Pd,Al,cubic,-1.341,0.551,-,9.822000000000001,0.0,3.662,3.662,3.662,90,90,90,-1.435
PdAsO3,Pd,As,cubic,-0.44799999999999995,0.649,-,10.69,0.0,3.767,3.767,3.767,90,90,90,0.35600000000000004
PdAuO3,Pd,Au,cubic,0.523,0.924,-,13.074000000000002,0.0,4.028,4.028,4.028,90,90,90,-1.681
PdBO3,Pd,B,cubic,-0.392,1.179,-,7.821000000000001,0.0,3.394,3.394,3.394,90,90,90,-1.7269999999999999
PdBaO3,Pd,Ba,rhombohedral,-1.305,0.231,-,19.031,0.613,6.594,6.594,6.594,57.3,57.3,57.3,-9.142999999999999
PdBeO3,Pd,Be,cubic,-0.685,0.7609999999999999,-,8.288,0.0,3.461,3.461,3.461,90,90,90,-3.7439999999999998
PdBiO3,Pd,Bi,cubic,-0.284,0.747,-,14.509,0.0,4.171,4.171,4.171,90,90,90,-2.3890000000000002
PdCaO3,Pd,Ca,rhombohedral,-1.339,0.375,-,14.222999999999999,0.536,6,6,6,57,57,57,-8.953
PdCdO3,Pd,Cd,cubic,0.39,1.2819999999999998,-,13.687000000000001,0.0,4.09,4.09,4.09,90,90,90,-7.23
PdCeO3,Pd,Ce,orthorhombic,-1.756,0.35100000000000003,0,14.554,0.0,5.847,6.056,8.22,90,90,90,-5.49
PdCoO3,Pd,Co,cubic,-0.166,0.72,0.025,10.092,0.0,3.695,3.695,3.695,90,90,90,-0.7120000000000001
PdCrO3,Pd,Cr,cubic,-0.972,0.5539999999999999,-0.001,10.735,0.0,3.772,3.772,3.772,90,90,90,0.047
PdCsO3,Pd,Cs,orthorhombic,-0.7140000000000001,0.188,-,19.999000000000002,0.0,6.351,6.642,9.483,90,90,90,-11.243
PdCuO3,Pd,Cu,cubic,0.102,0.716,-,10.167,0.0,3.704,3.704,3.704,90,90,90,-3.6719999999999997
PdDyO3,Pd,Dy,cubic,-1.171,1.034,0.596,16.232,0.0,4.33,4.33,4.33,90,90,90,-4.539
PdErO3,Pd,Er,cubic,-1.2329999999999999,0.975,0.599,15.769,0.0,4.288,4.288,4.288,90,90,90,-4.271
PdEuO3,Pd,Eu,orthorhombic,-1.4980000000000002,0.386,0,13.415999999999999,0.0,5.834,5.856,7.854,90,90,90,-6.021
PdFeO3,Pd,Fe,cubic,-0.509,0.5760000000000001,0.4,10.699000000000002,0.0,3.768,3.768,3.768,90,90,90,-1.858
PdGaO3,Pd,Ga,cubic,-0.575,0.735,-,10.97,0.0,3.8,3.8,3.8,90,90,90,-3.072
PdGdO3,Pd,Gd,cubic,-1.012,1.218,-0.04,16.679000000000002,0.0,4.369,4.369,4.369,90,90,90,-5.74
PdGeO3,Pd,Ge,cubic,-0.737,0.6559999999999999,-,10.377,0.0,3.73,3.73,3.73,90,90,90,0.441
PdHfO3,Pd,Hf,cubic,-1.905,0.6579999999999999,0.394,13.454,0.0,4.067,4.067,4.067,90,90,90,-0.19
PdHgO3,Pd,Hg,orthorhombic,-0.193,0.332,-,12.738,0.0,5.377,5.587,8.481,90,90,90,-6.56
PdHoO3,Pd,Ho,cubic,-1.203,0.9940000000000001,0.6,15.991,0.0,4.308,4.308,4.308,90,90,90,-4.397
PdInO3,Pd,In,cubic,-0.175,1.0070000000000001,-,13.874,0.0,4.109,4.109,4.109,90,90,90,-4.979
PdIrO3,Pd,Ir,cubic,-0.19699999999999998,0.7020000000000001,0.006,11.655999999999999,0.0,3.877,3.877,3.877,90,90,90,1.11
PdKO3,Pd,K,orthorhombic,-0.7140000000000001,0.237,-,17.378,0.0,5.907,6.447,9.127,90,90,90,-14.989
PdLaO3,Pd,La,orthorhombic,-1.869,0.33399999999999996,0,14.470999999999998,0.0,5.815,6.028,8.256,90,90,90,-5.572
PdLiO3,Pd,Li,cubic,0.081,1.1320000000000001,-,8.929,0.0,3.547,3.547,3.547,90,90,90,-6.635
PdLuO3,Pd,Lu,cubic,-1.321,0.92,0.59,14.877,0.0,4.206,4.206,4.206,90,90,90,-3.88
PdMgO3,Pd,Mg,cubic,-0.535,0.9209999999999999,-,10.898,0.0,3.791,3.791,3.791,90,90,90,-5.454
PdMnO3,Pd,Mn,cubic,-0.738,0.5720000000000001,0.2,10.725,0.0,3.771,3.771,3.771,90,90,90,-1.097
PdMoO3,Pd,Mo,orthorhombic,-1.3219999999999998,0.408,-0.055,11.175999999999998,0.0,5.258,5.581,7.617,90,90,90,3.431
PdNaO3,Pd,Na,cubic,0.7759999999999999,1.765,-,12.341,0.0,3.952,3.952,3.952,90,90,90,-10.644
PdNbO3,Pd,Nb,orthorhombic,-1.76,0.353,0.2,11.769,0.0,5.391,5.63,7.755,90,90,90,2.5
PdNdO3,Pd,Nd,cubic,-0.941,1.248,0.6,17.921,0.0,4.475,4.475,4.475,90,90,90,-5.275
PdNiO3,Pd,Ni,cubic,-0.067,0.69,0.811,9.996,0.0,3.684,3.684,3.684,90,90,90,-3.072
PdOsO3,Pd,Os,orthorhombic,-0.6759999999999999,0.305,0.002,10.869000000000002,0.0,5.251,5.576,7.425,90,90,90,2.7769999999999997
PdPaO3,Pd,Pa,tetragonal,-2.167,-0.048,0,16.975,0.0,4.235,4.477,4.477,90,90,90,2.262
PdPbO3,Pd,Pb,orthorhombic,-0.6559999999999999,0.273,-,13.025,0.0,5.382,5.752,8.415,90,90,90,-3.693
Pd2O3,Pd,Pd,cubic,0.207,0.726,-,12.035,0.0,3.919,3.919,3.919,90,90,90,-2.526
PdPmO3,Pd,Pm,orthorhombic,-1.829,0.331,0,13.745,0.0,5.695,5.937,8.13,90,90,90,-5.166
PdPrO3,Pd,Pr,orthorhombic,-1.781,0.35600000000000004,0,14.24,0.0,5.785,6.016,8.183,90,90,90,-5.349
PdPtO3,Pd,Pt,cubic,0.12300000000000001,0.8270000000000001,0.529,12.306,0.0,3.948,3.948,3.948,90,90,90,-0.514
PdPuO3,Pd,Pu,cubic,-1.4780000000000002,0.738,0.401,15.514000000000001,0.0,4.265,4.265,4.265,90,90,90,-0.228
PdRbO3,Pd,Rb,cubic,1.247,2.1430000000000002,-,15.965,0.0,4.306,4.306,4.306,90,90,90,-14.652999999999999
PdReO3,Pd,Re,cubic,-0.958,0.562,-0.032,11.548,0.0,3.865,3.865,3.865,90,90,90,3.701
PdRhO3,Pd,Rh,cubic,-0.13699999999999998,0.745,0.375,11.644,0.0,3.876,3.876,3.876,90,90,90,-0.41200000000000003
PdRuO3,Pd,Ru,cubic,-0.455,0.564,-0.013,11.384,0.0,3.847,3.847,3.847,90,90,90,1.85
PdSbO3,Pd,Sb,cubic,-0.726,0.525,-,12.357999999999999,0.0,3.953,3.953,3.953,90,90,90,1.0090000000000001
PdScO3,Pd,Sc,cubic,-1.2890000000000001,0.8740000000000001,-0.005,13.009,0.0,4.022,4.022,4.022,90,90,90,-3.967
PdSiO3,Pd,Si,cubic,-1.3719999999999999,0.732,-,9.052999999999999,0.0,3.564,3.564,3.564,90,90,90,1.3980000000000001
PdSmO3,Pd,Sm,cubic,-1.01,1.156,0.6,17.017,0.0,4.398,4.398,4.398,90,90,90,-5.138
PdSnO3,Pd,Sn,cubic,-0.679,0.753,-,12.972000000000001,0.0,4.018,4.018,4.018,90,90,90,-0.903
PdSrO3,Pd,Sr,rhombohedral,-1.31,0.326,-,16.018,0.599,6.077,6.077,6.077,60.4,60.4,60.4,-9.287
PdTaO3,Pd,Ta,orthorhombic,-1.982,0.33899999999999997,0.2,11.713,0.0,5.416,5.577,7.755,90,90,90,3.197
PdTbO3,Pd,Tb,cubic,-1.006,1.063,0.593,16.456,0.0,4.349,4.349,4.349,90,90,90,-4.687
PdTcO3,Pd,Tc,orthorhombic,-0.992,0.28800000000000003,0.008,10.845999999999998,0.0,5.218,5.541,7.502,90,90,90,2.926
PdTeO3,Pd,Te,cubic,-0.408,0.631,-,13.04,0.0,4.025,4.025,4.025,90,90,90,0.405
PdThO3,Pd,Th,cubic,-1.746,1.055,0.425,18.304000000000002,0.0,4.507,4.507,4.507,90,90,90,-2.178
PdTiO3,Pd,Ti,cubic,-1.65,0.555,0.396,11.464,0.0,3.856,3.856,3.856,90,90,90,0.139
PdTlO3,Pd,Tl,cubic,0.374,1.1159999999999999,-,14.690999999999999,0.0,4.188,4.188,4.188,90,90,90,-6.1
PdTmO3,Pd,Tm,cubic,-1.27,0.956,0.602,15.325,0.0,4.247,4.247,4.247,90,90,90,-3.9960000000000004
PdUO3,Pd,U,cubic,-1.9969999999999999,0.555,0,14.913,0.5379999999999999,4.209,4.209,4.209,90,90,90,1.74
PdVO3,Pd,V,cubic,-1.2670000000000001,0.495,0.203,10.690999999999999,0.0,3.767,3.767,3.767,90,90,90,1.653
PdWO3,Pd,W,cubic,-1.411,0.546,-0.062,11.819,0.0,3.895,3.895,3.895,90,90,90,4.195
PdYO3,Pd,Y,cubic,-1.149,1.08,0.6,16.398,0.0,4.344,4.344,4.344,90,90,90,-4.518
PdYbO3,Pd,Yb,orthorhombic,-1.535,0.359,-,12.384,0.215,5.371,5.643,8.172,90,90,90,-8.424
PdZnO3,Pd,Zn,cubic,-0.012,0.907,-,11.02,0.0,3.805,3.805,3.805,90,90,90,-5.331
PdZrO3,Pd,Zr,cubic,-1.72,0.7190000000000001,0.397,14.033,0.0,4.124,4.124,4.124,90,90,90,-0.785
PmAcO3,Pm,Ac,cubic,-2.333,1.295,0,20.362000000000002,0.0,4.669,4.669,4.669,90,90,90,1.524
PmAgO3,Pm,Ag,orthorhombic,-1.92,0.031,0,13.175999999999998,0.0,5.547,6.017,7.895,90,90,90,-0.098
PmAlO3,Pm,Al,orthorhombic,-3.531,-0.06,0,10.552999999999999,4.732,5.301,5.311,7.496,90,90,90,6.434
PmAsO3,Pm,As,cubic,-2.032,0.529,0,13.017999999999999,0.0,4.023,4.023,4.023,90,90,90,2.5660000000000003
PmAuO3,Pm,Au,cubic,-1.432,0.547,0,13.919,0.0,4.113,4.113,4.113,90,90,90,-0.196
PmBO3,Pm,B,cubic,-2.4619999999999997,0.687,0,8.751,2.59,3.524,3.524,3.524,90,90,90,5.1370000000000005
PmBaO3,Pm,Ba,orthorhombic,-2.725,0.29100000000000004,0.113,19.352,0.0,6.055,6.094,10.489,90,90,90,-5.83
PmBeO3,Pm,Be,cubic,-2.7239999999999998,0.301,0.2,9.372,0.0,3.605,3.605,3.605,90,90,90,-0.532
PmBiO3,Pm,Bi,cubic,-1.683,0.893,0,16.837,0.0,4.383,4.383,4.383,90,90,90,1.3
PmCaO3,Pm,Ca,cubic,-2.296,0.833,0.2,14.252,0.0,4.146,4.146,4.146,90,90,90,-2.197
PmCdO3,Pm,Cd,cubic,-1.735,0.598,0,13.902000000000001,0.0,4.112,4.112,4.112,90,90,90,-0.528
PmCeO3,Pm,Ce,cubic,-2.477,1.121,0,18.779,0.759,4.545,4.545,4.545,90,90,90,2.324
PmCoO3,Pm,Co,orthorhombic,-2.479,-0.013999999999999999,0.4,11.222999999999999,0.0,5.313,5.538,7.629,90,90,90,2.99
PmCrO3,Pm,Cr,orthorhombic,-3.1430000000000002,-0.063,0.6,11.625,2.375,5.386,5.594,7.716,90,90,90,4.593999999999999
PmCuO3,Pm,Cu,orthorhombic,-2.204,-0.044000000000000004,0,11.154000000000002,0.0,5.308,5.566,7.55,90,90,90,1.1540000000000001
PmDyO3,Pm,Dy,cubic,-3.055,0.708,0,15.647,1.7630000000000001,4.277,4.277,4.277,90,90,90,2.34
PmErO3,Pm,Er,cubic,-3.15,0.637,0,15.13,1.765,4.229,4.229,4.229,90,90,90,4.5360000000000005
PmEuO3,Pm,Eu,cubic,-2.289,0.9079999999999999,0.114,15.527999999999999,0.0,4.266,4.266,4.266,90,90,90,-1.453
PmFeO3,Pm,Fe,orthorhombic,-2.727,-0.063,1,11.787,1.119,5.405,5.639,7.735,90,90,90,3.7
PmGaO3,Pm,Ga,orthorhombic,-2.912,-0.023,0,11.543,4.033,5.389,5.565,7.699,90,90,90,4.789
PmGdO3,Pm,Gd,cubic,-2.945,0.789,0,16.230999999999998,1.645,4.33,4.33,4.33,90,90,90,2.173
PmGeO3,Pm,Ge,orthorhombic,-2.526,0.163,0,12.562999999999999,0.0,5.466,5.823,7.894,90,90,90,3.113
PmHfO3,Pm,Hf,orthorhombic,-3.4019999999999997,0.163,0.082,13.113,0.0,5.574,6.071,7.75,90,90,90,4.916
PmHgO3,Pm,Hg,cubic,-1.328,0.6920000000000001,0,14.850999999999999,0.0,4.203,4.203,4.203,90,90,90,-0.49700000000000005
PmHoO3,Pm,Ho,cubic,-3.105,0.6709999999999999,0,15.392999999999999,1.764,4.254,4.254,4.254,90,90,90,4.431
PmInO3,Pm,In,orthorhombic,-2.737,0.023,0,13.552999999999999,3.011,5.61,5.928,8.151,90,90,90,3.286
PmIrO3,Pm,Ir,cubic,-1.7630000000000001,0.5539999999999999,0.001,12.562000000000001,0.0,3.975,3.975,3.975,90,90,90,-0.201
PmKO3,Pm,K,cubic,-0.8759999999999999,1.54,-0.029,14.719000000000001,0.0,4.191,4.191,4.191,90,90,90,-3.2939999999999996
PmLaO3,Pm,La,cubic,-2.5989999999999998,1.0959999999999999,0,18.49,0.539,4.522,4.522,4.522,90,90,90,2.2569999999999997
PmLiO3,Pm,Li,orthorhombic,-2.234,0.28600000000000003,0.4,10.995999999999999,0.0,5.077,5.823,7.439,90,90,90,-0.8540000000000001
PmLuO3,Pm,Lu,cubic,-3.286,0.5329999999999999,0,14.49,2.1630000000000003,4.169,4.169,4.169,90,90,90,4.894
PmMgO3,Pm,Mg,orthorhombic,-2.875,0.15,0.2,11.885,0.0,5.363,5.756,7.701,90,90,90,-0.848
PmMnO3,Pm,Mn,orthorhombic,-2.905,-0.057999999999999996,0.8,11.834000000000001,0.0,5.398,5.74,7.639,90,90,90,3.763
PmMoO3,Pm,Mo,orthorhombic,-2.6310000000000002,0.177,0.588,12.787,0.0,5.489,5.893,7.907,90,90,90,2.505
PmNaO3,Pm,Na,cubic,-1.557,0.861,0.4,12.460999999999999,0.0,3.964,3.964,3.964,90,90,90,-2.1630000000000003
PmNbO3,Pm,Nb,orthorhombic,-2.946,0.139,0.001,12.857999999999999,0.0,5.489,6.01,7.797,90,90,90,3.772
PmNdO3,Pm,Nd,cubic,-2.654,0.9940000000000001,0,17.772000000000002,1.156,4.462,4.462,4.462,90,90,90,2.951
PmNiO3,Pm,Ni,orthorhombic,-2.3480000000000003,-0.013999999999999999,0.2,10.999,0.0,5.307,5.476,7.57,90,90,90,1.376
PmNpO3,Pm,Np,cubic,-2.7230000000000003,0.856,0.793,17.295,0.0,4.422,4.422,4.422,90,90,90,3.4989999999999997
PmOsO3,Pm,Os,cubic,-1.81,0.551,0.002,12.413,0.0,3.959,3.959,3.959,90,90,90,0.818
PmPaO3,Pm,Pa,cubic,-2.504,0.7290000000000001,0.306,17.835,0.0,4.468,4.468,4.468,90,90,90,4.72
PmPdO3,Pm,Pd,orthorhombic,-2.16,-0.06,0.001,12.489,0.0,5.486,5.934,7.672,90,90,90,0.446
Pm2O3,Pm,Pm,cubic,-2.742,0.934,0,17.285,1.171,4.421,4.421,4.421,90,90,90,3.245
PmPrO3,Pm,Pr,cubic,-2.572,1.054,0,18.234,0.965,4.501,4.501,4.501,90,90,90,2.66
PmPtO3,Pm,Pt,orthorhombic,-2.094,0.09300000000000001,0,12.675,0.0,5.53,6.102,7.513,90,90,90,0.022000000000000002
PmPuO3,Pm,Pu,cubic,-2.419,1.236,0.968,22.160999999999998,0.0,4.803,4.803,4.803,90,90,90,-0.823
PmRbO3,Pm,Rb,cubic,-0.7,1.7069999999999999,-0.004,16.433,0.0,4.347,4.347,4.347,90,90,90,-2.9410000000000003
PmReO3,Pm,Re,cubic,-2.023,0.584,0.166,12.468,0.0,3.965,3.965,3.965,90,90,90,1.125
PmRhO3,Pm,Rh,orthorhombic,-2.3609999999999998,-0.055999999999999994,0,12.095999999999998,0.945,5.357,5.826,7.751,90,90,90,0.503
PmRuO3,Pm,Ru,orthorhombic,-2.363,0.045,0.199,12.075999999999999,0.0,5.315,5.877,7.732,90,90,90,1.345
PmSbO3,Pm,Sb,cubic,-1.8840000000000001,0.7440000000000001,0,15.117,0.0,4.228,4.228,4.228,90,90,90,1.6669999999999998
PmScO3,Pm,Sc,orthorhombic,-3.7539999999999996,-0.012,0,12.764000000000001,4.694,5.531,5.788,7.973,90,90,90,5.29
PmSiO3,Pm,Si,cubic,-2.682,0.539,0,10.493,0.0,3.744,3.744,3.744,90,90,90,4.692
PmSmO3,Pm,Sm,cubic,-2.7969999999999997,0.892,0,16.975,1.365,4.395,4.395,4.395,90,90,90,3.3930000000000002
PmSnO3,Pm,Sn,cubic,-2.138,0.594,0,14.065,0.0,4.128,4.128,4.128,90,90,90,2.569
PmSrO3,Pm,Sr,cubic,-1.871,1.204,-0.001,16.873,0.0,4.386,4.386,4.386,90,90,90,-2.806
PmTaO3,Pm,Ta,orthorhombic,-2.948,0.205,0.001,12.709000000000001,0.0,5.469,6.006,7.738,90,90,90,3.838
PmTbO3,Pm,Tb,cubic,-2.8710000000000004,0.747,0,15.929,1.5659999999999998,4.302,4.302,4.302,90,90,90,4.113
PmTcO3,Pm,Tc,orthorhombic,-2.49,0.113,0.388,12.267000000000001,0.0,5.357,5.911,7.749,90,90,90,1.999
PmTeO3,Pm,Te,cubic,-1.571,0.852,0,15.35,0.0,4.25,4.25,4.25,90,90,90,1.2819999999999998
PmThO3,Pm,Th,cubic,-2.9019999999999997,0.855,0.077,18.902,0.0,4.555,4.555,4.555,90,90,90,2.636
PmTiO3,Pm,Ti,orthorhombic,-3.4139999999999997,-0.015,0.2,11.995999999999999,0.0,5.422,5.699,7.764,90,90,90,5.109
PmTlO3,Pm,Tl,cubic,-1.5959999999999999,0.711,0,15.35,0.0,4.25,4.25,4.25,90,90,90,0.958
PmTmO3,Pm,Tm,cubic,-3.2089999999999996,0.595,0,14.902999999999999,1.964,4.208,4.208,4.208,90,90,90,4.699
PmUO3,Pm,U,cubic,-2.701,0.856,0.561,16.980999999999998,0.0,4.395,4.395,4.395,90,90,90,2.762
PmVO3,Pm,V,orthorhombic,-3.216,-0.062,0.4,11.97,1.2570000000000001,5.418,5.702,7.749,90,90,90,4.295
PmWO3,Pm,W,orthorhombic,-2.5,0.318,-0.001,12.385,0.0,5.321,6.014,7.741,90,90,90,2.089
PmYO3,Pm,Y,cubic,-3.032,0.71,0,15.67,1.881,4.279,4.279,4.279,90,90,90,4.266
PmYbO3,Pm,Yb,cubic,-2.522,0.72,-0.002,14.013,0.0,4.123,4.123,4.123,90,90,90,-1.3519999999999999
PmZnO3,Pm,Zn,orthorhombic,-2.395,0.10300000000000001,0,11.806,0.0,5.364,5.746,7.66,90,90,90,0.243
PmZrO3,Pm,Zr,orthorhombic,-3.3480000000000003,0.135,0.1,13.409,0.0,5.618,6.138,7.777,90,90,90,4.558
PrAcO3,Pr,Ac,cubic,-2.418,1.16,0,20.551,0.0,4.684,4.684,4.684,90,90,90,1.8780000000000001
PrAgO3,Pr,Ag,orthorhombic,-1.892,0.009000000000000001,0,13.474,0.0,5.598,6.01,8.009,90,90,90,0.177
PrAlO3,Pr,Al,rhombohedral,-3.5,-0.079,0,10.784,4.271,5.323,5.323,5.323,60.5,60.5,60.5,6.474
PrAsO3,Pr,As,orthorhombic,-2.345,0.166,0,13.485,0.0,5.595,5.973,8.07,90,90,90,2.7910000000000004
PrAuO3,Pr,Au,orthorhombic,-1.9340000000000002,-0.005,0,13.9,0.987,5.713,6.561,7.417,90,90,90,0.1
PrBO3,Pr,B,cubic,-2.4,0.885,0,9.076,2.2430000000000003,3.567,3.567,3.567,90,90,90,4.888999999999999
PrBaO3,Pr,Ba,orthorhombic,-2.701,0.263,0.2,19.871,0.0,6.163,6.173,10.447,90,90,90,-3.37
PrBeO3,Pr,Be,tetragonal,-2.698,0.276,-0.003,10.004,0.0,3.501,3.501,4.08,90,90,90,-0.35600000000000004
PrBiO3,Pr,Bi,cubic,-1.746,0.779,0,16.619,0.0,4.364,4.364,4.364,90,90,90,1.423
PrCaO3,Pr,Ca,cubic,-2.358,0.722,0.2,14.432,0.0,4.163,4.163,4.163,90,90,90,-1.865
PrCdO3,Pr,Cd,orthorhombic,-2.166,0.11699999999999999,0,14.152000000000001,0.0,5.678,6.104,8.166,90,90,90,-0.266
PrCeO3,Pr,Ce,cubic,-2.5580000000000003,0.99,0,18.884,0.8809999999999999,4.554,4.554,4.554,90,90,90,2.634
PrCrO3,Pr,Cr,orthorhombic,-3.1039999999999996,-0.075,0.6,11.895,2.237,5.462,5.596,7.782,90,90,90,4.766
PrCuO3,Pr,Cu,orthorhombic,-2.1719999999999997,-0.052000000000000005,0,11.27,0.0,5.414,5.434,7.661,90,90,90,1.338
PrDyO3,Pr,Dy,cubic,-3.123,0.59,0,15.805,1.646,4.291,4.291,4.291,90,90,90,4.4910000000000005
PrErO3,Pr,Er,orthorhombic,-3.7039999999999997,0.033,0,14.623,4.898,5.781,6.039,8.377,90,90,90,4.728
PrEuO3,Pr,Eu,cubic,-2.362,0.785,0.141,15.752,0.0,4.287,4.287,4.287,90,90,90,-1.198
PrFeO3,Pr,Fe,orthorhombic,-2.69,-0.077,1,12.065999999999999,1.048,5.477,5.641,7.811,90,90,90,3.968
PrGaO3,Pr,Ga,orthorhombic,-2.875,-0.036000000000000004,0,11.788,3.7739999999999996,5.468,5.548,7.771,90,90,90,4.936
PrGdO3,Pr,Gd,cubic,-3.016,0.6679999999999999,0,16.368,1.5330000000000001,4.342,4.342,4.342,90,90,90,4.197
PrGeO3,Pr,Ge,orthorhombic,-2.496,0.142,0,12.886,0.0,5.533,5.846,7.967,90,90,90,3.236
PrHfO3,Pr,Hf,orthorhombic,-3.4019999999999997,0.114,0,13.311,0.0,5.589,5.595,8.514,90,90,90,5.113
PrHgO3,Pr,Hg,cubic,-1.395,0.575,0,15.022,0.0,4.219,4.219,4.219,90,90,90,-0.245
PrHoO3,Pr,Ho,cubic,-3.1710000000000003,0.5539999999999999,0,15.54,1.831,4.267,4.267,4.267,90,90,90,4.602
PrInO3,Pr,In,orthorhombic,-2.705,0.005,0,13.895999999999999,2.989,5.67,5.968,8.212,90,90,90,3.343
PrIrO3,Pr,Ir,orthorhombic,-2.181,0.10400000000000001,0,12.562999999999999,0.873,5.402,5.928,7.846,90,90,90,0.203
PrKO3,Pr,K,orthorhombic,-1.922,0.447,0.4,19.250999999999998,0.0,6.21,6.319,9.813,90,90,90,-3.324
PrLaO3,Pr,La,cubic,-2.68,0.965,0,18.627,0.501,4.533,4.533,4.533,90,90,90,2.5469999999999997
PrLiO3,Pr,Li,orthorhombic,-2.201,0.268,0.4,11.365,0.0,5.187,5.81,7.543,90,90,90,-0.679
PrLuO3,Pr,Lu,orthorhombic,-3.755,0.013000000000000001,0,14.171,5.018,5.729,5.966,8.292,90,90,90,5.041
PrMgO3,Pr,Mg,orthorhombic,-2.843,0.132,0.2,12.190999999999999,0.0,5.412,5.782,7.792,90,90,90,-0.545
PrMnO3,Pr,Mn,orthorhombic,-2.8680000000000003,0.002,0.8,12.077,0.0,5.468,5.685,7.77,90,90,90,3.883
PrMoO3,Pr,Mo,orthorhombic,-2.596,0.18899999999999997,0.549,13.072000000000001,0.0,5.531,5.928,7.974,90,90,90,2.9389999999999996
PrNaO3,Pr,Na,cubic,-1.605,0.7659999999999999,0.4,12.765,0.0,3.996,3.996,3.996,90,90,90,-1.835
PrNbO3,Pr,Nb,orthorhombic,-2.9130000000000003,0.193,0.001,13.202,0.0,5.542,6.032,7.899,90,90,90,4.0969999999999995
PrNdO3,Pr,Nd,cubic,-2.7319999999999998,0.866,0,17.89,1.091,4.472,4.472,4.472,90,90,90,3.2489999999999997
PrNiO3,Pr,Ni,orthorhombic,-2.312,-0.027999999999999997,0.198,11.169,0.0,5.395,5.423,7.636,90,90,90,1.493
PrNpO3,Pr,Np,cubic,-2.7910000000000004,0.737,0.786,17.439,0.0,4.434,4.434,4.434,90,90,90,3.565
PrOsO3,Pr,Os,cubic,-1.849,0.504,0.002,12.572000000000001,0.0,3.976,3.976,3.976,90,90,90,1.225
PrPdO3,Pr,Pd,orthorhombic,-2.127,0.01,0.001,12.876,0.0,5.552,5.951,7.794,90,90,90,0.75
PrPmO3,Pr,Pm,cubic,-2.818,0.8079999999999999,0,17.418,1.093,4.433,4.433,4.433,90,90,90,3.55
Pr2O3,Pr,Pr,cubic,-2.6519999999999997,0.924,0,18.345,0.91,4.51,4.51,4.51,90,90,90,2.96
PrPtO3,Pr,Pt,orthorhombic,-2.0580000000000003,0.078,0,13.052,0.0,5.597,6.114,7.629,90,90,90,0.349
PrPuO3,Pr,Pu,cubic,-2.825,0.78,0.928,16.812,0.0,4.381,4.381,4.381,90,90,90,2.766
PrRbO3,Pr,Rb,orthorhombic,-2.061,0.295,0,19.587,1.117,6.505,6.576,9.158,90,90,90,-2.467
PrReO3,Pr,Re,cubic,-2.061,0.541,0.177,12.642000000000001,0.0,3.983,3.983,3.983,90,90,90,1.618
PrRhO3,Pr,Rh,orthorhombic,-2.316,-0.06,0,12.425999999999998,0.708,5.421,5.849,7.839,90,90,90,0.878
PrRuO3,Pr,Ru,orthorhombic,-2.32,0.07200000000000001,0.198,12.405,0.0,5.384,5.895,7.818,90,90,90,1.73
PrSbO3,Pr,Sb,cubic,-1.946,0.711,0,15.329,0.0,4.248,4.248,4.248,90,90,90,1.926
PrScO3,Pr,Sc,orthorhombic,-3.721,-0.028999999999999998,0,13.073,4.487,5.596,5.811,8.04,90,90,90,5.422000000000001
PrSiO3,Pr,Si,tetragonal,-2.737,0.434,0.001,11.65,0.0,3.579,3.579,4.549,90,90,90,4.673
PrSmO3,Pr,Sm,cubic,-2.872,0.767,0,17.13,1.274,4.408,4.408,4.408,90,90,90,3.759
PrSnO3,Pr,Sn,cubic,-2.187,0.5710000000000001,0,14.3,0.0,4.151,4.151,4.151,90,90,90,2.737
PrSrO3,Pr,Sr,cubic,-1.946,1.078,-0.003,16.936,0.0,4.391,4.391,4.391,90,90,90,-2.307
PrTaO3,Pr,Ta,orthorhombic,-2.9139999999999997,0.311,0,13.054,0.0,5.526,6.018,7.85,90,90,90,4.18
PrTbO3,Pr,Tb,cubic,-2.9410000000000003,0.628,0,16.073,1.649,4.315,4.315,4.315,90,90,90,4.361000000000001
PrTcO3,Pr,Tc,orthorhombic,-2.451,0.10300000000000001,0.39,12.616,0.0,5.428,5.922,7.849,90,90,90,2.4530000000000003
PrTeO3,Pr,Te,cubic,-1.633,0.809,0,15.529000000000002,0.0,4.266,4.266,4.266,90,90,90,1.546
PrThO3,Pr,Th,cubic,-2.963,0.7709999999999999,0.057,18.96,0.0,4.56,4.56,4.56,90,90,90,3.52
PrTiO3,Pr,Ti,orthorhombic,-3.3819999999999997,-0.033,0.194,12.264000000000001,0.0,5.493,5.695,7.84,90,90,90,5.31
PrTlO3,Pr,Tl,orthorhombic,-2.214,0.043,0,14.972000000000001,1.1320000000000001,5.774,6.149,8.433,90,90,90,1.197
PrTmO3,Pr,Tm,orthorhombic,-3.7289999999999996,0.025,0,14.447000000000001,5.007,5.763,6.005,8.349,90,90,90,4.856
PrUO3,Pr,U,cubic,-2.7539999999999996,0.752,0.546,16.999000000000002,0.0,4.397,4.397,4.397,90,90,90,2.997