formula,atom a,atom b,lowest distortion,e_form,e_hull,mu_b,vpa,gap pbe,a,b,c,alpha,beta,gamma,e_form oxygen
BSiO3,B,Si,cubic,-0.8370000000000001,1.8940000000000001,-,8.357000000000001,0.0,3.47,3.47,3.47,90,90,90,0.59
BSmO3,B,Sm,cubic,-0.41,2.9130000000000003,-0.397,17.464000000000002,0.0,4.436,4.436,4.436,90,90,90,-4.459
BSnO3,B,Sn,cubic,-0.053,2.164,-,13.100999999999999,0.0,4.031,4.031,4.031,90,90,90,-1.197
BSrO3,B,Sr,cubic,0.66,3.408,-,18.084,0.0,4.488,4.488,4.488,90,90,90,-9.204
BTaO3,B,Ta,cubic,-1.443,1.307,0,12.282,2.039,3.945,3.945,3.945,90,90,90,5.114
BTbO3,B,Tb,cubic,-0.313,2.8360000000000003,-0.01,16.383,0.0,4.343,4.343,4.343,90,90,90,-5.061
BTcO3,B,Tc,cubic,-0.377,1.7,-0.002,11.232999999999999,0.0,3.83,3.83,3.83,90,90,90,3.031
BTeO3,B,Te,cubic,0.034,1.93,-,12.935,0.0,4.014,4.014,4.014,90,90,90,1.175
BThO3,B,Th,cubic,-1.216,2.234,-0.112,17.835,0.0,4.468,4.468,4.468,90,90,90,-0.903
BTiO3,B,Ti,cubic,-0.9840000000000001,1.8880000000000001,-0.005,11.362,0.0,3.844,3.844,3.844,90,90,90,-1.49
BTlO3,B,Tl,cubic,0.987,2.767,-,14.724,0.0,4.191,4.191,4.191,90,90,90,-5.992999999999999
BTmO3,B,Tm,cubic,-0.539,2.738,0.002,15.502,0.0,4.264,4.264,4.264,90,90,90,-5.142
BUO3,B,U,cubic,-1.577,1.601,0.2,15.777999999999999,1.7409999999999999,4.289,4.289,4.289,90,90,90,4.164
BVO3,B,V,cubic,-0.76,1.9280000000000002,-0.001,10.263,0.0,3.716,3.716,3.716,90,90,90,0.24600000000000002
BWO3,B,W,cubic,-0.9079999999999999,1.3840000000000001,0,11.683,0.0,3.88,3.88,3.88,90,90,90,4.583
BYO3,B,Y,cubic,-0.431,2.9360000000000004,0,16.42,0.0,4.346,4.346,4.346,90,90,90,-5.185
BYbO3,B,Yb,cubic,0.28600000000000003,3.036,-,14.632,0.0,4.182,4.182,4.182,90,90,90,-7.777
BZnO3,B,Zn,cubic,0.757,2.783,-,10.567,0.0,3.752,3.752,3.752,90,90,90,-7.79
BZrO3,B,Zr,cubic,-1.084,1.999,0.001,14.199000000000002,0.0,4.141,4.141,4.141,90,90,90,-1.32
BaAcO3,Ba,Ac,orthorhombic,-2.8569999999999998,0.106,0.2,19.583,0.0,6.449,6.603,9.198,90,90,90,0.61
BaAgO3,Ba,Ag,rhombohedral,-1.26,0.11699999999999999,-,14.380999999999998,0.0,5.838,5.838,5.838,61,61,61,0.032
BaAlO3,Ba,Al,cubic,-2.721,0.218,-,12.057,0.0,3.921,3.921,3.921,90,90,90,0.638
BaAsO3,Ba,As,cubic,-2.06,0.282,-,13.2,0.0,4.041,4.041,4.041,90,90,90,2.226
BaAuO3,Ba,Au,orthorhombic,-1.3090000000000002,0.223,-,14.591,0.0,5.852,5.883,8.478,90,90,90,0.54
BaBO3,Ba,B,cubic,-1.399,1.291,-,10.375,0.0,3.73,3.73,3.73,90,90,90,-1.864
Ba2O3,Ba,Ba,cubic,-1.781,0.564,-,20.209,0.0,4.658,4.658,4.658,90,90,90,-0.983
BaBeO3,Ba,Be,cubic,-1.82,0.638,-,11.231,0.0,3.829,3.829,3.829,90,90,90,-1.5319999999999998
BaBiO3,Ba,Bi,rhombohedral,-2.066,0.005,-,16.717,0.0,6.165,6.165,6.165,60.4,60.4,60.4,1.929
BaCaO3,Ba,Ca,orthorhombic,-2.1180000000000003,0.431,-,16.973,0.0,6.124,6.367,8.705,90,90,90,-1.09
BaCdO3,Ba,Cd,orthorhombic,-1.482,0.284,-,15.259,0.0,5.953,6.062,8.457,90,90,90,-0.43700000000000006
BaCeO3,Ba,Ce,orthorhombic,-2.784,0.15,0.2,18.712,0.0,6.355,6.496,9.066,90,90,90,-0.006
BaCoO3,Ba,Co,orthorhombic,-1.8419999999999999,0.111,0.673,12.761,0.0,5.642,5.646,8.012,90,90,90,0.6629999999999999
BaCrO3,Ba,Cr,orthorhombic,-2.461,0.12300000000000001,0.4,12.39,0.258,5.607,5.607,7.882,90,90,90,1.778
BaCsO3,Ba,Cs,cubic,-0.977,0.779,-,19.097,0.0,4.571,4.571,4.571,90,90,90,-0.67
BaCuO3,Ba,Cu,rhombohedral,-1.4580000000000002,0.135,-,12.5,0.0,5.615,5.615,5.615,59.9,59.9,59.9,-0.068
BaDyO3,Ba,Dy,orthorhombic,-2.9810000000000003,0.11900000000000001,0.2,16.739,0.0,6.177,6.199,8.743,90,90,90,0.203
BaErO3,Ba,Er,orthorhombic,-3.016,0.10800000000000001,0.2,16.442999999999998,0.0,6.145,6.159,8.689,90,90,90,0.302
BaEuO3,Ba,Eu,orthorhombic,-2.298,0.331,0.4,17.647000000000002,0.0,6.296,6.422,8.729,90,90,90,-0.631
BaFeO3,Ba,Fe,cubic,-2.095,0.0,0.826,12.547,0.0,3.973,3.973,3.973,90,90,90,1.185
BaGaO3,Ba,Ga,cubic,-2.147,0.084,-,13.026,0.0,4.023,4.023,4.023,90,90,90,0.071
BaGeO3,Ba,Ge,rhombohedral,-2.299,0.226,-,12.315999999999999,0.0,5.585,5.585,5.585,60,60,60,3.341
BaHfO3,Ba,Hf,cubic,-3.625,-0.247,0,14.549000000000001,3.687,4.174,4.174,4.174,90,90,90,6.962000000000001
BaHgO3,Ba,Hg,orthorhombic,-1.256,0.19699999999999998,-,15.617,0.0,6.004,6.09,8.543,90,90,90,-0.106
BaHoO3,Ba,Ho,orthorhombic,-2.9989999999999997,0.11800000000000001,0.2,16.584,0.0,6.159,6.171,8.727,90,90,90,0.243
BaInO3,Ba,In,cubic,-1.9980000000000002,0.12300000000000001,-,15.248,0.0,4.24,4.24,4.24,90,90,90,-0.026000000000000002
BaIrO3,Ba,Ir,orthorhombic,-1.7269999999999999,0.121,0.053,13.345,0.0,5.703,5.773,8.106,90,90,90,2.572
BaKO3,Ba,K,cubic,-0.736,1.041,-,17.616,0.0,4.449,4.449,4.449,90,90,90,-2.699
BaLaO3,Ba,La,orthorhombic,-2.903,0.132,0.2,18.41,0.0,6.34,6.441,9.017,90,90,90,0.259
BaLiO3,Ba,Li,cubic,-1.359,0.56,-,12.470999999999998,0.0,3.965,3.965,3.965,90,90,90,-1.374
BaLuO3,Ba,Lu,orthorhombic,-3.068,0.095,0.2,15.95,0.0,6.085,6.087,8.613,90,90,90,0.483
BaMgO3,Ba,Mg,rhombohedral,-2.112,0.337,-,13.482000000000001,0.0,5.755,5.755,5.755,60,60,60,-0.626
BaMnO3,Ba,Mn,orthorhombic,-2.269,0.111,0.598,12.644,0.0,5.626,5.638,7.972,90,90,90,1.1520000000000001
BaMoO3,Ba,Mo,cubic,-2.585,0.004,0,13.347999999999999,0.0,4.056,4.056,4.056,90,90,90,5.505
BaNaO3,Ba,Na,cubic,-1.0659999999999998,0.7390000000000001,-,15.119000000000002,0.0,4.228,4.228,4.228,90,90,90,-1.796
BaNbO3,Ba,Nb,cubic,-3.016,-0.035,0,14.034,0.0,4.125,4.125,4.125,90,90,90,6.121
BaNdO3,Ba,Nd,orthorhombic,-2.841,0.147,0.2,18.073,0.0,6.3,6.404,8.959,90,90,90,0.042
BaNiO3,Ba,Ni,orthorhombic,-1.591,0.177,-0.001,12.698,0.0,5.625,5.659,7.979,90,90,90,0.252
BaNpO3,Ba,Np,orthorhombic,-3.389,-0.08900000000000001,0.6,17.299,2.57,6.233,6.273,8.849,90,90,90,4.436
BaOsO3,Ba,Os,cubic,-1.874,-0.10300000000000001,0.193,13.13,0.0,4.034,4.034,4.034,90,90,90,3.6710000000000003
BaPaO3,Ba,Pa,orthorhombic,-3.153,-0.21899999999999997,0.2,17.997,2.695,6.316,6.361,8.959,90,90,90,6.391
BaPbO3,Ba,Pb,orthorhombic,-1.9469999999999998,-0.066,-,16.081,0.618,6.088,6.12,8.633,90,90,90,1.7930000000000001
BaPdO3,Ba,Pd,orthorhombic,-1.536,-0.005,-,13.648,0.0,5.733,5.793,8.219,90,90,90,0.534
BaPmO3,Ba,Pm,orthorhombic,-2.872,0.14400000000000002,0.2,17.779,0.0,6.265,6.366,8.915,90,90,90,0.07200000000000001
BaPrO3,Ba,Pr,orthorhombic,-2.815,0.149,0.2,18.355999999999998,0.0,6.323,6.446,9.008,90,90,90,0.013999999999999999
BaPtO3,Ba,Pt,orthorhombic,-1.587,0.019,0,13.759,0.257,5.743,5.83,8.218,90,90,90,1.235
BaPuO3,Ba,Pu,rhombohedral,-3.3,0.0,0.8,17.022000000000002,2.12,6.197,6.197,6.197,60.5,60.5,60.5,4.205
BaRbO3,Ba,Rb,cubic,-0.745,1.0070000000000001,-,17.9,0.0,4.473,4.473,4.473,90,90,90,-2.03
BaReO3,Ba,Re,cubic,-2.199,0.134,0.005,13.167,0.0,4.038,4.038,4.038,90,90,90,4.794
BaRhO3,Ba,Rh,orthorhombic,-1.756,0.076,0.188,13.279000000000002,0.0,5.705,5.751,8.095,90,90,90,1.905
BaRuO3,Ba,Ru,cubic,-1.953,0.071,0.389,13.15,0.0,4.036,4.036,4.036,90,90,90,3.303
BaSbO3,Ba,Sb,cubic,-2.254,0.063,-,15.293,0.0,4.244,4.244,4.244,90,90,90,2.9789999999999996
BaScO3,Ba,Sc,cubic,-3.043,0.066,0.2,14.6,0.0,4.179,4.179,4.179,90,90,90,0.46299999999999997
BaSiO3,Ba,Si,cubic,-2.68,0.524,-,11.084000000000001,1.2890000000000001,3.813,3.813,3.813,90,90,90,4.872
BaSmO3,Ba,Sm,orthorhombic,-2.888,0.142,0.2,17.602999999999998,0.0,6.261,6.335,8.877,90,90,90,0.076
BaSnO3,Ba,Sn,cubic,-2.443,-0.052000000000000005,-,14.338,0.883,4.154,4.154,4.154,90,90,90,4.152
BaSrO3,Ba,Sr,cubic,-1.869,0.58,-,18.594,0.0,4.53,4.53,4.53,90,90,90,-1.287
BaTaO3,Ba,Ta,cubic,-3.108,0.042,0,13.824000000000002,0.0,4.104,4.104,4.104,90,90,90,6.487
BaTbO3,Ba,Tb,orthorhombic,-2.8310000000000004,0.13,0.199,16.947,0.0,6.189,6.243,8.773,90,90,90,0.154
BaTcO3,Ba,Tc,rhombohedral,-2.254,0.055999999999999994,0.065,13.075999999999999,0.0,5.699,5.699,5.699,60,60,60,4.3469999999999995
BaTeO3,Ba,Te,tetragonal,-2.056,0.129,-,16.187,0.743,4.249,4.249,4.483,90,90,90,3.391
BaThO3,Ba,Th,orthorhombic,-3.62,-0.004,0,18.557000000000002,4.363,6.369,6.443,9.045,90,90,90,6.151
BaTiO3,Ba,Ti,tetragonal,-3.2880000000000003,-0.03,0,13.029000000000002,1.68,3.987,3.987,4.099,90,90,90,5.357
BaTlO3,Ba,Tl,orthorhombic,-1.548,0.136,-,16.086,0.0,6.065,6.147,8.63,90,90,90,-0.20199999999999999
BaTmO3,Ba,Tm,orthorhombic,-3.04,0.10300000000000001,0.199,16.243,0.0,6.128,6.128,8.65,90,90,90,0.34299999999999997
BaUO3,Ba,U,orthorhombic,-3.46,-0.094,0.4,17.58,2.645,6.256,6.32,8.893,90,90,90,5.4479999999999995
BaVO3,Ba,V,orthorhombic,-2.801,0.065,0.2,12.693,0.0,5.583,5.584,8.142,90,90,90,3.522
BaWO3,Ba,W,cubic,-2.57,0.157,0,13.372,0.0,4.059,4.059,4.059,90,90,90,5.861000000000001
BaYO3,Ba,Y,orthorhombic,-2.957,0.129,0.2,16.909000000000002,0.0,6.185,6.242,8.759,90,90,90,0.106
BaYbO3,Ba,Yb,rhombohedral,-2.276,0.39799999999999996,-,15.993,0.0,6.026,6.026,6.026,61.5,61.5,61.5,-0.46299999999999997
BaZnO3,Ba,Zn,cubic,-1.6640000000000001,0.267,-,13.177,0.0,4.039,4.039,4.039,90,90,90,-0.43700000000000006
BaZrO3,Ba,Zr,cubic,-3.477,-0.096,0,15.082,3.108,4.225,4.225,4.225,90,90,90,6.582000000000001
BeAcO3,Be,Ac,rhombohedral,-2.764,0.213,0.2,14.664000000000001,0.0,6.294,6.294,6.294,52.8,52.8,52.8,-5.221
BeAgO3,Be,Ag,cubic,0.433,1.732,-,12.136,0.0,3.93,3.93,3.93,90,90,90,-4.4239999999999995
BeAlO3,Be,Al,cubic,-1.5230000000000001,1.308,-,9.197000000000001,0.0,3.583,3.583,3.583,90,90,90,-2.544
BeAsO3,Be,As,cubic,-0.63,1.393,-,10.221,0.0,3.711,3.711,3.711,90,90,90,0.562
BeAuO3,Be,Au,cubic,0.40399999999999997,1.7309999999999999,-,12.482999999999999,0.0,3.967,3.967,3.967,90,90,90,-3.9619999999999997
BeBO3,Be,B,cubic,-0.8340000000000001,1.6640000000000001,-,6.77,0.0,3.235,3.235,3.235,90,90,90,-3.292
BeBaO3,Be,Ba,cubic,0.174,2.6319999999999997,-,18.605,0.0,4.531,4.531,4.531,90,90,90,-10.116
Be2O3,Be,Be,cubic,-0.8540000000000001,1.5190000000000001,-,7.47,0.0,3.343,3.343,3.343,90,90,90,-5.051
BeBiO3,Be,Bi,cubic,-0.28600000000000003,1.672,-,14.502,0.0,4.17,4.17,4.17,90,90,90,-3.488
BeCaO3,Be,Ca,orthorhombic,-2.398,0.09300000000000001,-,10.423,2.65,5.074,5.731,7.168,90,90,90,-9.03
BeCdO3,Be,Cd,cubic,0.302,1.983,-,12.96,0.0,4.017,4.017,4.017,90,90,90,-6.894
BeCeO3,Be,Ce,rhombohedral,-2.693,0.254,0.2,14.01,0.0,6.248,6.248,6.248,52,52,52,-6.265
BeCoO3,Be,Co,cubic,-0.402,1.411,0.465,9.283999999999999,0.0,3.594,3.594,3.594,90,90,90,-2.2030000000000003
BeCrO3,Be,Cr,cubic,-1.06,1.393,0.399,10.041,0.0,3.689,3.689,3.689,90,90,90,-1.02
BeCsO3,Be,Cs,cubic,0.9359999999999999,2.765,-,16.756,0.0,4.376,4.376,4.376,90,90,90,-3.491
BeCuO3,Be,Cu,cubic,-0.098,1.411,-,9.484,0.0,3.62,3.62,3.62,90,90,90,-4.0489999999999995
BeDyO3,Be,Dy,cubic,-1.094,2.0180000000000002,0.206,15.280999999999999,0.0,4.243,4.243,4.243,90,90,90,-5.202000000000001
BeErO3,Be,Er,cubic,-1.158,1.9769999999999999,0.205,14.847000000000001,0.0,4.203,4.203,4.203,90,90,90,-4.9719999999999995
BeEuO3,Be,Eu,orthorhombic,-2.5540000000000003,0.003,0,10.738,2.4459999999999997,5.065,5.911,7.173,90,90,90,-8.264
BeFeO3,Be,Fe,cubic,-0.705,1.307,0.8,9.87,0.0,3.668,3.668,3.668,90,90,90,-1.666
BeGaO3,Be,Ga,cubic,-0.6920000000000001,1.545,-,10.448,0.0,3.738,3.738,3.738,90,90,90,-3.77
BeGdO3,Be,Gd,orthorhombic,-2.873,0.21,0,10.575,0.23800000000000002,4.741,5.537,8.056,90,90,90,-5.439
BeGeO3,Be,Ge,cubic,-1.002,1.318,-,9.656,0.0,3.641,3.641,3.641,90,90,90,1.025
BeHfO3,Be,Hf,cubic,-1.942,1.548,0,13.036,0.0,4.024,4.024,4.024,90,90,90,-0.7120000000000001
BeHgO3,Be,Hg,cubic,0.5539999999999999,1.922,-,13.51,0.0,4.073,4.073,4.073,90,90,90,-8.183
BeHoO3,Be,Ho,cubic,-1.127,1.996,0.206,15.049000000000001,0.0,4.222,4.222,4.222,90,90,90,-5.075
BeInO3,Be,In,cubic,-0.243,1.8659999999999999,-,13.187999999999999,0.0,4.04,4.04,4.04,90,90,90,-4.696000000000001
BeIrO3,Be,Ir,cubic,-0.19699999999999998,1.6280000000000001,0.06,11.415,0.0,3.85,3.85,3.85,90,90,90,-0.8059999999999999
BeKO3,Be,K,cubic,1.24,3.075,-,14.215,0.0,4.142,4.142,4.142,90,90,90,-17.883
BeLaO3,Be,La,orthorhombic,-2.872,0.171,0,11.458,0.262,4.859,5.637,8.366,90,90,90,-5.622999999999999
BeLiO3,Be,Li,cubic,-0.004,1.8980000000000001,-,8.133,0.0,3.439,3.439,3.439,90,90,90,-8.177999999999999
BeLuO3,Be,Lu,cubic,-1.2590000000000001,1.9080000000000001,0.203,14.290999999999999,0.0,4.15,4.15,4.15,90,90,90,-4.57
BeMgO3,Be,Mg,cubic,-0.557,1.825,-,10.552,0.0,3.751,3.751,3.751,90,90,90,-5.252000000000001
BeMnO3,Be,Mn,cubic,-0.9129999999999999,1.324,0.618,9.779,0.0,3.657,3.657,3.657,90,90,90,-1.7180000000000002
BeMoO3,Be,Mo,cubic,-1.171,1.308,-0.006,11.622,0.0,3.873,3.873,3.873,90,90,90,2.844
BeNaO3,Be,Na,cubic,0.7490000000000001,2.562,-,11.924000000000001,0.0,3.907,3.907,3.907,90,90,90,-6.244
BeNbO3,Be,Nb,cubic,-1.581,1.237,-0.121,12.464,0.0,3.965,3.965,3.965,90,90,90,0.6559999999999999
BeNdO3,Be,Nd,rhombohedral,-2.716,0.344,0.2,13.129000000000001,0.0,5.968,5.968,5.968,54.6,54.6,54.6,-5.982
BeNiO3,Be,Ni,cubic,-0.235,1.4480000000000002,0.007,9.283999999999999,0.0,3.594,3.594,3.594,90,90,90,-3.345
BeNpO3,Be,Np,rhombohedral,-3.065,0.348,0.6,12.345,0.0,5.995,5.995,5.995,51.9,51.9,51.9,2.367
BeOsO3,Be,Os,cubic,-0.45299999999999996,1.43,0.119,11.322000000000001,0.0,3.84,3.84,3.84,90,90,90,0.8079999999999999
BePaO3,Be,Pa,cubic,-1.7380000000000002,1.308,0.001,16.397000000000002,0.0,4.344,4.344,4.344,90,90,90,4.253
BePbO3,Be,Pb,cubic,-0.096,1.76,-,14.091,0.0,4.13,4.13,4.13,90,90,90,-3.813
BePdO3,Be,Pd,cubic,0.094,1.54,-,11.465,0.0,3.856,3.856,3.856,90,90,90,-3.355
BePmO3,Be,Pm,orthorhombic,-2.8360000000000003,0.18899999999999997,0,10.952,0.36,4.75,5.662,8.144,90,90,90,-5.832000000000001
BePrO3,Be,Pr,orthorhombic,-2.803,0.172,0,11.293,0.0,4.795,5.754,8.187,90,90,90,-6.027
BePtO3,Be,Pt,cubic,0.062,1.693,0.063,11.782,0.0,3.891,3.891,3.891,90,90,90,-1.7930000000000001
BePuO3,Be,Pu,cubic,-1.444,1.699,0.69,15.673,0.0,4.279,4.279,4.279,90,90,90,-1.6
BeRbO3,Be,Rb,cubic,1.215,3.0380000000000003,-,14.917,0.0,4.209,4.209,4.209,90,90,90,-17.157
BeReO3,Be,Re,cubic,-0.851,1.361,0.006,11.423,0.0,3.851,3.851,3.851,90,90,90,1.989
BeRhO3,Be,Rh,cubic,-0.191,1.618,0.246,11.255,0.0,3.832,3.832,3.832,90,90,90,-1.58
BeRuO3,Be,Ru,cubic,-0.442,1.505,0.393,11.219000000000001,0.0,3.828,3.828,3.828,90,90,90,0.043
BeSbO3,Be,Sb,cubic,-0.721,1.456,-,12.302,0.0,3.947,3.947,3.947,90,90,90,-0.43
BeScO3,Be,Sc,cubic,-1.3430000000000002,1.7469999999999999,0,12.616,0.0,3.981,3.981,3.981,90,90,90,-4.176
BeSiO3,Be,Si,cubic,-1.794,1.2429999999999999,-,8.185,0.35200000000000004,3.446,3.446,3.446,90,90,90,4.114
BeSmO3,Be,Sm,cubic,-0.9279999999999999,2.109,0.213,16.605,0.0,4.362,4.362,4.362,90,90,90,-5.733
BeSnO3,Be,Sn,cubic,-0.7959999999999999,1.5619999999999998,-,12.497,0.0,3.968,3.968,3.968,90,90,90,-1.064
BeSrO3,Be,Sr,cubic,0.092,2.574,-,16.643,0.0,4.366,4.366,4.366,90,90,90,-10.413
BeTaO3,Be,Ta,cubic,-1.819,1.121,-0.148,12.253,0.0,3.942,3.942,3.942,90,90,90,1.696
BeTbO3,Be,Tb,cubic,-0.9279999999999999,2.0380000000000003,0.207,15.561,0.0,4.269,4.269,4.269,90,90,90,-5.319
BeTcO3,Be,Tc,cubic,-0.81,1.3969999999999998,0.006,11.28,0.0,3.835,3.835,3.835,90,90,90,1.619
BeTeO3,Be,Te,cubic,-0.373,1.5930000000000002,-,13.261,0.0,4.048,4.048,4.048,90,90,90,-0.192
BeThO3,Be,Th,cubic,-1.6540000000000001,2.074,-0.086,18.234,0.0,4.501,4.501,4.501,90,90,90,-3.2969999999999997
BeTiO3,Be,Ti,cubic,-1.778,1.354,0,10.925,0.0,3.794,3.794,3.794,90,90,90,0.033
BeTlO3,Be,Tl,cubic,0.294,1.949,-,14.014000000000001,0.0,4.123,4.123,4.123,90,90,90,-5.482
BeTmO3,Be,Tm,cubic,-1.202,1.95,0.204,14.620999999999999,0.0,4.181,4.181,4.181,90,90,90,-4.789
BeUO3,Be,U,cubic,-1.9509999999999998,1.527,0.026,15.782,0.0,4.289,4.289,4.289,90,90,90,4.378
BeVO3,Be,V,cubic,-1.3419999999999999,1.347,0,10.176,0.0,3.706,3.706,3.706,90,90,90,0.146
BeWO3,Be,W,cubic,-1.28,1.213,-0.017,11.697000000000001,0.0,3.882,3.882,3.882,90,90,90,3.6010000000000004
BeYO3,Be,Y,cubic,-1.058,2.033,0.207,15.512,0.0,4.265,4.265,4.265,90,90,90,-5.249
BeYbO3,Be,Yb,orthorhombic,-2.5340000000000003,0.055999999999999994,-,10.042,2.6189999999999998,5.067,5.659,7.004,90,90,90,-7.8229999999999995
BeZnO3,Be,Zn,cubic,-0.152,1.694,-,10.27,0.0,3.717,3.717,3.717,90,90,90,-4.9319999999999995
BeZrO3,Be,Zr,cubic,-1.735,1.631,0,13.64,0.0,4.086,4.086,4.086,90,90,90,-1.469
BiAcO3,Bi,Ac,cubic,-1.489,1.038,0.004,20.176,0.0,4.655,4.655,4.655,90,90,90,-0.652
BiAgO3,Bi,Ag,orthorhombic,-0.816,0.065,-,13.495,0.35700000000000004,5.78,6.05,7.719,90,90,90,-0.27399999999999997
BiAlO3,Bi,Al,orthorhombic,-2.319,0.069,-,10.885,2.6519999999999997,5.335,5.391,7.569,90,90,90,4.691
BiAsO3,Bi,As,orthorhombic,-1.232,0.228,-,13.453,0.33,5.546,6.004,8.081,90,90,90,1.801
BiAuO3,Bi,Au,cubic,-0.353,0.5529999999999999,-,14.074000000000002,0.0,4.129,4.129,4.129,90,90,90,-0.165
BiBO3,Bi,B,cubic,-1.178,0.9440000000000001,-,8.995,2.4419999999999997,3.556,3.556,3.556,90,90,90,3.534
BiBaO3,Bi,Ba,orthorhombic,-1.868,0.203,-,19.55,0.0,6.365,6.474,9.489,90,90,90,-7.849
BiBeO3,Bi,Be,tetragonal,-1.635,0.322,-,10.501,0.0,3.443,3.443,4.43,90,90,90,-1.21
Bi2O3,Bi,Bi,cubic,-0.8140000000000001,0.66,-,16.427,0.0,4.347,4.347,4.347,90,90,90,0.643
BiCdO3,Bi,Cd,cubic,-0.626,0.639,-,14.199000000000002,0.0,4.141,4.141,4.141,90,90,90,-1.3630000000000002
BiCeO3,Bi,Ce,cubic,-1.53,0.9670000000000001,0.042,18.987000000000002,0.0,4.562,4.562,4.562,90,90,90,-4.2780000000000005
BiCoO3,Bi,Co,orthorhombic,-1.249,0.136,0,11.625,0.441,5.349,5.666,7.671,90,90,90,2.897
BiCrO3,Bi,Cr,orthorhombic,-1.962,0.016,0.6,11.927999999999999,1.56,5.43,5.647,7.781,90,90,90,3.843
BiCsO3,Bi,Cs,orthorhombic,-1.214,0.188,-,21.381,1.054,5.406,6.019,13.142,90,90,90,-3.043
BiCuO3,Bi,Cu,orthorhombic,-1.063,0.03,-,11.827,0.0,5.369,5.948,7.408,90,90,90,0.652
BiDyO3,Bi,Dy,cubic,-2.004,0.6579999999999999,0,15.975999999999999,0.0,4.307,4.307,4.307,90,90,90,-1.1520000000000001
BiErO3,Bi,Er,cubic,-2.085,0.6,0,15.533,0.0,4.266,4.266,4.266,90,90,90,-0.31
BiEuO3,Bi,Eu,orthorhombic,-2.122,0.133,0,15.624,0.0,5.923,6.115,8.628,90,90,90,-4.2669999999999995
BiFeO3,Bi,Fe,orthorhombic,-1.5519999999999998,0.017,1,12.067,1.2830000000000001,5.447,5.675,7.808,90,90,90,2.5869999999999997
BiGaO3,Bi,Ga,tetragonal,-1.7590000000000001,0.04,-,12.617,2.053,3.687,3.687,4.642,90,90,90,4.012
BiGdO3,Bi,Gd,cubic,-1.912,0.721,0,16.64,0.0,4.366,4.366,4.366,90,90,90,-1.8119999999999998
BiGeO3,Bi,Ge,tetragonal,-1.3969999999999998,0.281,-,13.527000000000001,0.0,3.832,3.832,4.607,90,90,90,3.272
BiHfO3,Bi,Hf,orthorhombic,-2.5269999999999997,0.268,0.003,13.754000000000001,0.0,5.725,5.77,8.328,90,90,90,4.027
BiHgO3,Bi,Hg,orthorhombic,-0.821,0.132,-,15.127,0.0,5.63,5.983,8.983,90,90,90,-1.24
BiHoO3,Bi,Ho,cubic,-2.046,0.628,0,15.754000000000001,0.0,4.287,4.287,4.287,90,90,90,-0.821
BiInO3,Bi,In,orthorhombic,-1.621,0.038,-,13.878,2.645,5.644,6.039,8.144,90,90,90,0.639
BiIrO3,Bi,Ir,cubic,-0.685,0.557,0,12.755,0.0,3.995,3.995,3.995,90,90,90,0.257
BiKO3,Bi,K,orthorhombic,-1.209,0.24100000000000002,-,16.576,0.6729999999999999,4.63,5.553,12.894,90,90,90,-3.908
BiLaO3,Bi,La,cubic,-1.6569999999999998,0.9359999999999999,0.045,18.63,0.0,4.533,4.533,4.533,90,90,90,-3.847
BiLiO3,Bi,Li,cubic,-0.821,0.6609999999999999,-,10.440999999999999,0.0,3.737,3.737,3.737,90,90,90,-3.445
BiLuO3,Bi,Lu,orthorhombic,-2.6860000000000004,0.032,0,14.19,2.947,5.682,6.059,8.243,90,90,90,0.295
BiMgO3,Bi,Mg,orthorhombic,-1.8969999999999998,0.06,-,11.843,0.0,5.348,5.67,7.811,90,90,90,-1.541
BiMnO3,Bi,Mn,orthorhombic,-1.7269999999999999,0.023,0.8,12.120999999999999,0.0,5.432,5.786,7.714,90,90,90,2.544
BiMoO3,Bi,Mo,orthorhombic,-1.4709999999999999,0.342,0.6,13.054,0.0,5.56,5.911,7.944,90,90,90,3.605
BiNaO3,Bi,Na,orthorhombic,-1.275,0.18,-,13.664000000000001,0.609,5.133,5.479,9.717,90,90,90,-5.244
BiNbO3,Bi,Nb,orthorhombic,-1.874,0.381,0.001,13.277999999999999,0.0,5.64,5.71,8.246,90,90,90,4.001
BiNdO3,Bi,Nd,cubic,-1.671,0.8759999999999999,0.01,18.116,0.0,4.491,4.491,4.491,90,90,90,-3.403
BiNiO3,Bi,Ni,orthorhombic,-1.2329999999999999,0.035,0.394,11.585,0.0,5.33,5.671,7.666,90,90,90,0.59
BiNpO3,Bi,Np,cubic,-1.976,0.742,0.56,17.125999999999998,0.0,4.408,4.408,4.408,90,90,90,0.299
BiOsO3,Bi,Os,orthorhombic,-0.973,0.28600000000000003,0.107,12.405999999999999,0.0,5.322,6.009,7.759,90,90,90,1.324
BiPaO3,Bi,Pa,rhombohedral,-2.15,0.2,0.144,16.166,0.0,5.886,5.886,5.886,65.6,65.6,65.6,3.9819999999999998
BiPbO3,Bi,Pb,orthorhombic,-1.2209999999999999,0.13699999999999998,-,15.069,0.0,5.809,6.235,8.321,90,90,90,1.186