formula,atom a,atom b,lowest distortion,e_form,e_hull,mu_b,vpa,gap pbe,a,b,c,alpha,beta,gamma,e_form oxygen
CeNbO3,Ce,Nb,orthorhombic,-2.8930000000000002,0.19399999999999998,0.003,13.427999999999999,0.0,5.583,6.037,7.968,90,90,90,4.295
CeNdO3,Ce,Nd,cubic,-2.7760000000000002,0.795,0,17.971,1.055,4.479,4.479,4.479,90,90,90,3.435
CeNiO3,Ce,Ni,orthorhombic,-2.294,-0.037000000000000005,0.2,11.311,0.0,5.387,5.473,7.673,90,90,90,1.5230000000000001
CeNpO3,Ce,Np,cubic,-2.8280000000000003,0.672,0.779,17.546,0.0,4.443,4.443,4.443,90,90,90,3.721
CeOsO3,Ce,Os,orthorhombic,-2.1,0.183,0.103,12.655,0.0,5.342,6.053,7.827,90,90,90,1.463
CePaO3,Ce,Pa,cubic,-2.592,0.563,0.293,18.039,0.0,4.485,4.485,4.485,90,90,90,5.172000000000001
CePdO3,Ce,Pd,orthorhombic,-2.1069999999999998,-0.08,0.001,13.064,0.0,5.589,5.948,7.859,90,90,90,0.9109999999999999
CePmO3,Ce,Pm,cubic,-2.861,0.738,0,17.506,1.226,4.44,4.44,4.44,90,90,90,3.7260000000000004
CePrO3,Ce,Pr,cubic,-2.697,0.852,0,18.434,0.879,4.517,4.517,4.517,90,90,90,3.116
CePtO3,Ce,Pt,orthorhombic,-2.037,0.071,0,13.275,0.0,5.634,6.128,7.69,90,90,90,0.53
CePuO3,Ce,Pu,cubic,-2.8560000000000003,0.72,0.926,16.831,0.0,4.382,4.382,4.382,90,90,90,2.852
CeRbO3,Ce,Rb,orthorhombic,-2.041,0.28800000000000003,0,19.672,1.058,6.588,6.627,9.011,90,90,90,-2.543
CeReO3,Ce,Re,orthorhombic,-2.238,0.29100000000000004,0.284,12.787,0.0,5.382,6.051,7.854,90,90,90,1.899
CeRhO3,Ce,Rh,orthorhombic,-2.2880000000000003,-0.061,0,12.630999999999998,0.6709999999999999,5.469,5.852,7.893,90,90,90,1.093
CeRuO3,Ce,Ru,orthorhombic,-2.294,0.037000000000000005,0.198,12.6,0.0,5.43,5.9,7.867,90,90,90,1.9680000000000002
CeSbO3,Ce,Sb,cubic,-1.9780000000000002,0.5720000000000001,0,15.47,0.0,4.261,4.261,4.261,90,90,90,2.066
CeScO3,Ce,Sc,orthorhombic,-3.701,-0.038,0,13.251,4.42,5.638,5.828,8.066,90,90,90,5.523
CeSiO3,Ce,Si,tetragonal,-2.728,0.41600000000000004,0.001,11.786,0.0,3.61,3.61,4.523,90,90,90,4.632
CeSmO3,Ce,Sm,cubic,-2.9130000000000003,0.6970000000000001,0,17.21,1.261,4.415,4.415,4.415,90,90,90,3.924
CeSnO3,Ce,Sn,orthorhombic,-2.509,0.145,0,15.004000000000001,0.0,5.801,6.125,8.447,90,90,90,2.823
CeSrO3,Ce,Sr,cubic,-1.99,1.0070000000000001,0,17.087,0.0,4.404,4.404,4.404,90,90,90,-2.116
CeTaO3,Ce,Ta,orthorhombic,-2.892,0.297,0,13.267999999999999,0.0,5.56,6.017,7.932,90,90,90,4.367
CeTbO3,Ce,Tb,cubic,-2.978,0.562,0,16.167,1.754,4.324,4.324,4.324,90,90,90,4.476
CeTcO3,Ce,Tc,orthorhombic,-2.426,0.099,0.393,12.802999999999999,0.0,5.478,5.903,7.918,90,90,90,2.7439999999999998
CeTeO3,Ce,Te,cubic,-1.6640000000000001,0.7559999999999999,0,15.655999999999999,0.0,4.278,4.278,4.278,90,90,90,1.663
CeThO3,Ce,Th,cubic,-2.997,0.7190000000000001,0.036,19.04,0.0,4.566,4.566,4.566,90,90,90,3.673
CeTiO3,Ce,Ti,orthorhombic,-3.363,-0.042,0.11,12.347000000000001,0.0,5.534,5.66,7.884,90,90,90,5.397
CeTlO3,Ce,Tl,orthorhombic,-2.197,0.032,0,15.189,1.079,5.81,6.185,8.453,90,90,90,1.325
CeTmO3,Ce,Tm,orthorhombic,-3.7110000000000003,0.015,0,14.65,5.086,5.798,6.03,8.381,90,90,90,4.953
CeUO3,Ce,U,cubic,-2.784,0.695,0.542,17.184,0.0,4.413,4.413,4.413,90,90,90,3.1039999999999996
CeVO3,Ce,V,orthorhombic,-3.159,-0.084,0.4,12.42,1.109,5.528,5.711,7.868,90,90,90,4.542
CeWO3,Ce,W,orthorhombic,-2.449,0.366,0,12.918,0.0,5.405,6.059,7.889,90,90,90,2.795
CeYO3,Ce,Y,cubic,-3.136,0.528,0,15.905,1.935,4.3,4.3,4.3,90,90,90,4.567
CeYbO3,Ce,Yb,cubic,-2.612,0.552,-0.001,14.347000000000001,0.0,4.155,4.155,4.155,90,90,90,-0.877
CeZnO3,Ce,Zn,orthorhombic,-2.342,0.078,0,12.229000000000001,0.0,5.484,5.7,7.824,90,90,90,0.529
CeZrO3,Ce,Zr,orthorhombic,-3.305,0.147,0.018,14.185,0.0,5.746,6.041,8.174,90,90,90,4.869
CoAgO3,Co,Ag,cubic,0.365,1.105,0.679,12.540999999999999,0.0,3.973,3.973,3.973,90,90,90,-2.293
CoAlO3,Co,Al,cubic,-1.661,0.598,0.785,9.587,0.0,3.633,3.633,3.633,90,90,90,-0.55
CoAsO3,Co,As,cubic,-0.753,0.652,0.551,10.706,0.0,3.769,3.769,3.769,90,90,90,0.728
CoBO3,Co,B,cubic,-0.8190000000000001,1.119,0.757,7.343,0.0,3.324,3.324,3.324,90,90,90,-1.705
CoBeO3,Co,Be,cubic,-0.932,0.8809999999999999,0.805,8.095,0.0,3.433,3.433,3.433,90,90,90,-3.8489999999999998
CoCeO3,Co,Ce,orthorhombic,-2.281,0.141,0.8,15.922,1.578,5.549,6.416,8.943,90,90,90,-5.095
Co2O3,Co,Co,cubic,-0.37799999999999995,0.8759999999999999,-0.091,9.751,0.0,3.653,3.653,3.653,90,90,90,-2.8
CoCuO3,Co,Cu,cubic,-0.237,0.7120000000000001,0.721,9.897,0.0,3.671,3.671,3.671,90,90,90,-2.54
CoDyO3,Co,Dy,rhombohedral,-2.431,0.121,0.799,13.398,1.607,5.988,5.988,5.988,55,55,55,-4.651
CoErO3,Co,Er,cubic,-1.3869999999999998,1.189,0.798,14.911,0.0,4.209,4.209,4.209,90,90,90,-3.861
CoFeO3,Co,Fe,cubic,-0.853,0.61,1.406,10.269,0.0,3.717,3.717,3.717,90,90,90,-0.624
CoGdO3,Co,Gd,cubic,-1.256,1.2670000000000001,0.801,15.987,0.0,4.308,4.308,4.308,90,90,90,-3.1830000000000003
CoGeO3,Co,Ge,cubic,-1.14,0.551,0.6,10.046,0.867,3.69,3.69,3.69,90,90,90,1.515
CoHfO3,Co,Hf,cubic,-2.1519999999999997,0.649,0.599,13.183,0.0,4.04,4.04,4.04,90,90,90,0.544
CoLiO3,Co,Li,cubic,-0.129,1.236,0.597,8.706,0.0,3.518,3.518,3.518,90,90,90,-5.7379999999999995
CoLuO3,Co,Lu,cubic,-1.4869999999999999,1.121,0.8,14.436,0.0,4.164,4.164,4.164,90,90,90,-2.759
CoMnO3,Co,Mn,cubic,-0.915,0.7340000000000001,0,10.186,0.0,3.707,3.707,3.707,90,90,90,-2.3080000000000003
CoMoO3,Co,Mo,orthorhombic,-1.666,0.147,-0.2,10.571,0.0,5.249,5.25,7.672,90,90,90,3.332
CoNaO3,Co,Na,rhombohedral,-1.013,0.289,0.4,12.852,1.249,5.75,5.75,5.75,58.1,58.1,58.1,-10.09
CoNbO3,Co,Nb,cubic,-1.719,0.555,0.502,12.579,0.0,3.977,3.977,3.977,90,90,90,3.2680000000000002
CoNiO3,Co,Ni,cubic,-0.355,0.768,0.805,9.677,0.0,3.644,3.644,3.644,90,90,90,-2.1519999999999997
CoPdO3,Co,Pd,cubic,0.040999999999999995,0.927,0.719,11.742,0.0,3.887,3.887,3.887,90,90,90,-2.8280000000000003
CoPtO3,Co,Pt,cubic,-0.083,0.941,0.675,12.093,0.0,3.925,3.925,3.925,90,90,90,-1.168
CoReO3,Co,Re,cubic,-0.948,0.574,0.505,11.633,0.0,3.875,3.875,3.875,90,90,90,2.8939999999999997
CoSbO3,Co,Sb,cubic,-0.909,0.608,0.442,12.663,0.0,3.986,3.986,3.986,90,90,90,1.453
CoScO3,Co,Sc,cubic,-1.568,0.963,0.798,12.83,0.0,4.003,4.003,4.003,90,90,90,-2.898
CoSiO3,Co,Si,cubic,-1.8530000000000002,0.515,0.599,8.646,1.149,3.51,3.51,3.51,90,90,90,3.9619999999999997
CoSrO3,Co,Sr,rhombohedral,-1.785,0.133,0.6,16.352999999999998,0.0,6.583,6.583,6.583,52,52,52,-7.768
CoTaO3,Co,Ta,cubic,-1.9280000000000002,0.5489999999999999,0.482,12.331,0.0,3.951,3.951,3.951,90,90,90,3.8339999999999996
CoTbO3,Co,Tb,rhombohedral,-2.29,0.11699999999999999,0.799,13.606,1.5730000000000002,6.025,6.025,6.025,54.8,54.8,54.8,-4.123
CoTcO3,Co,Tc,cubic,-0.938,0.58,0.528,11.612,0.0,3.872,3.872,3.872,90,90,90,1.7080000000000002
CoThO3,Co,Th,cubic,-1.851,1.188,0.584,18.647000000000002,0.0,4.534,4.534,4.534,90,90,90,1.599
CoTiO3,Co,Ti,cubic,-1.963,0.525,0.6,11.159,0.677,3.821,3.821,3.821,90,90,90,1.218
CoTlO3,Co,Tl,rhombohedral,-0.8909999999999999,0.205,0.798,13.149000000000001,0.5579999999999999,5.829,5.829,5.829,57.3,57.3,57.3,-3.062
CoTmO3,Co,Tm,cubic,-1.431,1.161,0.8,14.777000000000001,0.0,4.196,4.196,4.196,90,90,90,-3.057
CoVO3,Co,V,cubic,-1.5190000000000001,0.485,0.401,10.467,0.0,3.74,3.74,3.74,90,90,90,1.271
CoYO3,Co,Y,rhombohedral,-2.4130000000000003,0.11800000000000001,0.8,13.470999999999998,1.7630000000000001,5.999,5.999,5.999,54.9,54.9,54.9,-4.168
CoZrO3,Co,Zr,cubic,-1.9509999999999998,0.726,0.599,13.777999999999999,0.0,4.099,4.099,4.099,90,90,90,-0.141
CrAcO3,Cr,Ac,rhombohedral,-2.79,0.348,0.6,16.754,1.8019999999999998,6.388,6.388,6.388,56.1,56.1,56.1,-4.273
CrAgO3,Cr,Ag,cubic,-0.16399999999999998,1.2229999999999999,0.699,12.66,0.0,3.985,3.985,3.985,90,90,90,-5.608
CrAlO3,Cr,Al,cubic,-2.105,0.768,0.6,9.626,0.0,3.638,3.638,3.638,90,90,90,-0.85
CrAsO3,Cr,As,cubic,-1.157,0.807,0.891,10.751,0.0,3.774,3.774,3.774,90,90,90,0.855
CrBO3,Cr,B,cubic,-1.27,1.319,0.6,7.417999999999999,0.0,3.335,3.335,3.335,90,90,90,-0.8270000000000001
CrBeO3,Cr,Be,cubic,-1.504,0.9490000000000001,0.401,8.027000000000001,0.0,3.424,3.424,3.424,90,90,90,-4.09
CrCdO3,Cr,Cd,cubic,-0.327,1.495,0.656,13.665999999999999,0.0,4.088,4.088,4.088,90,90,90,-6.622000000000001
CrCeO3,Cr,Ce,rhombohedral,-2.713,0.369,0.6,15.568,1.726,6.225,6.225,6.225,56.2,56.2,56.2,-5.24
CrCoO3,Cr,Co,cubic,-0.951,0.9259999999999999,0.505,9.798,0.0,3.659,3.659,3.659,90,90,90,-1.758
Cr2O3,Cr,Cr,cubic,-1.636,0.846,1.2,10.513,0.0,3.746,3.746,3.746,90,90,90,-0.172
CrCuO3,Cr,Cu,cubic,-0.6629999999999999,0.935,0.628,9.999,0.0,3.684,3.684,3.684,90,90,90,-3.867
CrDyO3,Cr,Dy,cubic,-1.7380000000000002,1.465,0.817,15.988,0.0,4.308,4.308,4.308,90,90,90,-4.771
CrErO3,Cr,Er,cubic,-1.79,1.4269999999999998,0.917,15.600999999999999,0.0,4.273,4.273,4.273,90,90,90,-4.65
CrEuO3,Cr,Eu,orthorhombic,-2.58,0.22,0.4,13.527000000000001,1.121,5.536,5.596,8.733,90,90,90,-7.627999999999999
CrFeO3,Cr,Fe,cubic,-1.212,0.8540000000000001,1.6,10.5,0.0,3.744,3.744,3.744,90,90,90,-1.245
CrGaO3,Cr,Ga,cubic,-1.319,0.972,0.6,10.869000000000002,0.0,3.788,3.788,3.788,90,90,90,-2.49
CrGdO3,Cr,Gd,rhombohedral,-2.842,0.34299999999999997,0.6,14.075999999999999,1.599,6.077,6.077,6.077,55.1,55.1,55.1,-5.024
CrGeO3,Cr,Ge,cubic,-1.485,0.606,0.801,10.19,0.0,3.707,3.707,3.707,90,90,90,1.771
CrHfO3,Cr,Hf,cubic,-2.54,0.59,0.799,13.357999999999999,0.0,4.057,4.057,4.057,90,90,90,1.6640000000000001
CrHgO3,Cr,Hg,cubic,-0.046,1.406,0.763,14.08,0.0,4.129,4.129,4.129,90,90,90,-6.395
CrHoO3,Cr,Ho,cubic,-1.776,1.435,0.776,15.755,0.0,4.287,4.287,4.287,90,90,90,-4.611000000000001
CrInO3,Cr,In,cubic,-0.883,1.28,0.764,14.434000000000001,0.0,4.163,4.163,4.163,90,90,90,-4.195
CrIrO3,Cr,Ir,cubic,-0.7879999999999999,0.9309999999999999,0.652,11.779000000000002,0.0,3.891,3.891,3.891,90,90,90,0.54
CrKO3,Cr,K,cubic,0.38799999999999996,2.436,0.198,17.573,0.0,4.446,4.446,4.446,90,90,90,-11.474
CrLaO3,Cr,La,rhombohedral,-2.821,0.34700000000000003,0.6,15.593,1.7590000000000001,6.264,6.264,6.264,55.6,55.6,55.6,-4.876
CrLiO3,Cr,Li,cubic,-0.787,1.276,0.199,8.88,0.0,3.541,3.541,3.541,90,90,90,-5.755
CrLuO3,Cr,Lu,cubic,-1.847,1.386,0.798,14.807,0.0,4.199,4.199,4.199,90,90,90,-4.685
CrMnO3,Cr,Mn,cubic,-1.433,0.8170000000000001,1.4,10.437999999999999,0.0,3.737,3.737,3.737,90,90,90,-1.205
CrMoO3,Cr,Mo,orthorhombic,-1.952,0.259,1.179,10.908,0.0,5.227,5.435,7.679,90,90,90,4.002
CrNaO3,Cr,Na,orthorhombic,-1.835,0.17800000000000002,0.199,12.402000000000001,1.077,5.219,5.228,9.089,90,90,90,-8.454
CrNbO3,Cr,Nb,orthorhombic,-2.3480000000000003,0.139,0.88,11.23,0.0,5.231,5.566,7.715,90,90,90,4.426
CrNdO3,Cr,Nd,rhombohedral,-2.7569999999999997,0.364,0.6,14.921,1.526,6.143,6.143,6.143,56.1,56.1,56.1,-5.414
CrNiO3,Cr,Ni,cubic,-0.812,0.96,0.797,9.891,0.0,3.671,3.671,3.671,90,90,90,-3.321
CrNpO3,Cr,Np,orthorhombic,-2.8489999999999998,0.23399999999999999,1.4,13.382,1.7109999999999999,5.474,5.787,8.449,90,90,90,0.9520000000000001
CrOsO3,Cr,Os,cubic,-1.061,0.7020000000000001,0.933,11.591,0.0,3.87,3.87,3.87,90,90,90,2.059
CrPaO3,Cr,Pa,rhombohedral,-2.597,0.09,1,14.44,1.247,5.985,5.985,5.985,57.9,57.9,57.9,5.275
CrPdO3,Cr,Pd,cubic,-0.537,0.9890000000000001,0.63,12.1,0.0,3.926,3.926,3.926,90,90,90,-2.471
CrPmO3,Cr,Pm,rhombohedral,-2.782,0.36,0.6,14.622,1.581,6.107,6.107,6.107,56,56,56,-5.027
CrPrO3,Cr,Pr,rhombohedral,-2.737,0.36700000000000005,0.6,15.218,1.798,6.182,6.182,6.182,56.1,56.1,56.1,-5.186
CrPtO3,Cr,Pt,cubic,-0.512,1.077,0.677,12.229000000000001,0.0,3.94,3.94,3.94,90,90,90,-1.005
CrRbO3,Cr,Rb,cubic,0.555,2.602,0.726,15.945,0.0,4.304,4.304,4.304,90,90,90,-13.863
CrReO3,Cr,Re,cubic,-1.4780000000000002,0.532,0.97,11.696,0.0,3.881,3.881,3.881,90,90,90,3.167
CrRhO3,Cr,Rh,cubic,-0.789,0.919,0.526,11.675,0.0,3.879,3.879,3.879,90,90,90,-0.43799999999999994
CrRuO3,Cr,Ru,cubic,-1.033,0.778,0.82,11.469000000000001,0.0,3.856,3.856,3.856,90,90,90,0.8959999999999999
CrSbO3,Cr,Sb,cubic,-1.354,0.677,0.947,12.671,0.0,3.986,3.986,3.986,90,90,90,2.01
CrScO3,Cr,Sc,cubic,-2.009,1.135,0.6,12.979000000000001,0.0,4.019,4.019,4.019,90,90,90,-3.18
CrSiO3,Cr,Si,cubic,-2.168,0.5489999999999999,0.8,8.808,0.0,3.531,3.531,3.531,90,90,90,4.29
CrSmO3,Cr,Sm,rhombohedral,-2.799,0.35200000000000004,0.6,14.555,1.635,6.143,6.143,6.143,55.2,55.2,55.2,-5.257999999999999
CrSnO3,Cr,Sn,cubic,-1.374,0.76,0.8,12.899000000000001,0.0,4.01,4.01,4.01,90,90,90,0.7120000000000001
CrSrO3,Cr,Sr,orthorhombic,-2.443,0.159,0.4,14.672,1.367,5.503,5.603,9.517,90,90,90,-14.856
CrTaO3,Cr,Ta,orthorhombic,-2.5269999999999997,0.134,0.95,11.48,0.0,5.398,5.501,7.732,90,90,90,5.251
CrTbO3,Cr,Tb,orthorhombic,-2.7239999999999998,0.34,0.6,12.562999999999999,1.4609999999999999,5.492,5.623,8.135,90,90,90,-4.7330000000000005
CrTeO3,Cr,Te,cubic,-1.024,0.8009999999999999,0.945,13.564,0.0,4.078,4.078,4.078,90,90,90,1.393
CrThO3,Cr,Th,cubic,-2.332,1.037,0.798,18.333,0.0,4.509,4.509,4.509,90,90,90,-0.9540000000000001
CrTiO3,Cr,Ti,orthorhombic,-2.7430000000000003,0.062,0.8,10.181000000000001,0.326,5.067,5.35,7.511,90,90,90,1.7380000000000002
CrTlO3,Cr,Tl,orthorhombic,-1.402,0.307,0.6,12.364,0.634,5.379,5.506,8.35,90,90,90,-5.53
CrTmO3,Cr,Tm,cubic,-1.871,1.358,0.591,15.307,0.0,4.246,4.246,4.246,90,90,90,-4.111000000000001
CrUO3,Cr,U,cubic,-2.557,0.562,1.2,15.939,0.0,4.303,4.303,4.303,90,90,90,3.426
CrVO3,Cr,V,cubic,-1.913,0.643,0.89,10.584000000000001,0.0,3.754,3.754,3.754,90,90,90,1.672
CrWO3,Cr,W,orthorhombic,-1.9480000000000002,0.28600000000000003,0.881,11.119000000000002,0.0,5.39,5.397,7.644,90,90,90,4.578
CrYO3,Cr,Y,cubic,-1.6680000000000001,1.51,1.196,16.248,0.0,4.331,4.331,4.331,90,90,90,-5.199
CrYbO3,Cr,Yb,orthorhombic,-2.577,0.212,0.4,12.452,1.209,5.434,5.434,8.434,90,90,90,-6.976
CrZnO3,Cr,Zn,cubic,-0.77,1.1840000000000002,0.557,10.93,0.0,3.795,3.795,3.795,90,90,90,-4.986000000000001
CrZrO3,Cr,Zr,cubic,-2.3480000000000003,0.659,0.801,13.972000000000001,0.0,4.118,4.118,4.118,90,90,90,1.022
CsAcO3,Cs,Ac,cubic,-2.055,0.299,0,19.906,0.0,4.634,4.634,4.634,90,90,90,-0.39899999999999997
CsAgO3,Cs,Ag,cubic,-0.198,0.55,-,15.002,0.0,4.217,4.217,4.217,90,90,90,-1.78
CsAlO3,Cs,Al,cubic,-1.56,0.6829999999999999,-,12.302999999999999,0.0,3.948,3.948,3.948,90,90,90,-2.088
CsAsO3,Cs,As,cubic,-0.9740000000000001,0.728,-,13.147,0.0,4.036,4.036,4.036,90,90,90,-1.415
CsAuO3,Cs,Au,tetragonal,-0.336,0.409,-,17.95,0.0,3.941,3.941,5.779,90,90,90,-1.443
CsBO3,Cs,B,cubic,-0.20800000000000002,1.82,-,10.107000000000001,0.0,3.697,3.697,3.697,90,90,90,-4.2589999999999995
CsBaO3,Cs,Ba,cubic,-1.047,0.7090000000000001,-,20.866999999999997,0.0,4.708,4.708,4.708,90,90,90,-1.6159999999999999
CsBeO3,Cs,Be,cubic,-0.6629999999999999,1.166,-,10.975999999999999,0.0,3.8,3.8,3.8,90,90,90,-3.3489999999999998
CsBiO3,Cs,Bi,cubic,-1.219,0.184,-,16.633,0.0,4.365,4.365,4.365,90,90,90,-0.223
CsCaO3,Cs,Ca,cubic,-1.155,0.765,-,18.657,0.0,4.535,4.535,4.535,90,90,90,-1.791
CsCdO3,Cs,Cd,cubic,-0.457,0.68,-,16.579,0.0,4.36,4.36,4.36,90,90,90,-1.8630000000000002
CsCeO3,Cs,Ce,cubic,-1.9469999999999998,0.377,0.4,20.968000000000004,0.0,4.715,4.715,4.715,90,90,90,-0.693
Cs2O3,Cs,Cs,cubic,-0.24100000000000002,0.887,-,18.689,0.0,4.538,4.538,4.538,90,90,90,-1.385
CsCuO3,Cs,Cu,cubic,-0.29100000000000004,0.708,-,12.642000000000001,0.0,3.983,3.983,3.983,90,90,90,-2.369
CsDyO3,Cs,Dy,cubic,-2.108,0.38,0.4,18.51,0.0,4.523,4.523,4.523,90,90,90,-0.75
CsErO3,Cs,Er,cubic,-2.133,0.379,0.399,18.012999999999998,0.0,4.483,4.483,4.483,90,90,90,-0.71
CsEuO3,Cs,Eu,cubic,-1.4240000000000002,0.5770000000000001,0.6,19.375,0.0,4.593,4.593,4.593,90,90,90,-0.9670000000000001
CsGaO3,Cs,Ga,cubic,-1.0170000000000001,0.598,-,13.427999999999999,0.0,4.064,4.064,4.064,90,90,90,-2.267
CsGdO3,Cs,Gd,rhombohedral,-2.0780000000000003,0.382,0.4,18.986,0.0,6.452,6.452,6.452,60,60,60,-0.807
CsGeO3,Cs,Ge,tetragonal,-1.4340000000000002,0.185,-,15.546,0.0,3.628,3.628,5.906,90,90,90,-1.689
CsHfO3,Cs,Hf,cubic,-2.615,0.174,0.2,15.262,0.0,4.242,4.242,4.242,90,90,90,0.021
CsHgO3,Cs,Hg,cubic,-0.22699999999999998,0.597,-,16.515,0.0,4.355,4.355,4.355,90,90,90,-1.723
CsInO3,Cs,In,orthorhombic,-0.982,0.516,-,16.38,0.0,6.137,6.147,8.685,90,90,90,-1.6280000000000001
CsIrO3,Cs,Ir,tetragonal,-1.021,0.24,0.002,16.099,0.0,3.841,3.841,5.455,90,90,90,0.37200000000000005
CsKO3,Cs,K,cubic,0.099,1.247,-,21.871,0.0,4.782,4.782,4.782,90,90,90,-7.081
CsLaO3,Cs,La,rhombohedral,-2.066,0.354,0.4,20.151,0.0,6.582,6.582,6.582,60,60,60,-0.757
CsLiO3,Cs,Li,cubic,-0.212,1.078,-,12.975,0.0,4.018,4.018,4.018,90,90,90,-3.2110000000000003
CsLuO3,Cs,Lu,cubic,-2.164,0.381,0.401,17.185,0.0,4.413,4.413,4.413,90,90,90,-0.7070000000000001
CsMgO3,Cs,Mg,cubic,-1.026,0.795,-,14.209000000000001,0.0,4.142,4.142,4.142,90,90,90,-2.138
CsMoO3,Cs,Mo,tetragonal,-2.032,0.14800000000000002,0.028,16.169,0.0,3.904,3.904,5.304,90,90,90,3.7289999999999996
CsNaO3,Cs,Na,cubic,-0.06,1.1159999999999999,-,17.112000000000002,0.0,4.406,4.406,4.406,90,90,90,-2.7110000000000003
CsNbO3,Cs,Nb,tetragonal,-2.6010000000000004,0.075,0,16.947,1.7919999999999998,3.95,3.95,5.431,90,90,90,4.3660000000000005
CsNdO3,Cs,Nd,cubic,-1.994,0.38,0.4,20.070999999999998,0.0,4.647,4.647,4.647,90,90,90,-0.76
CsNpO3,Cs,Np,rhombohedral,-2.767,-0.055999999999999994,0.4,17.012,1.131,6.238,6.238,6.238,59.6,59.6,59.6,1.176
CsPaO3,Cs,Pa,orthorhombic,-2.8710000000000004,-0.298,0,17.747,3.798,6.308,6.309,8.919,90,90,90,5.841
CsPbO3,Cs,Pb,rhombohedral,-0.951,0.27399999999999997,-,17.288,0.0,6.253,6.253,6.253,60,60,60,-1.1320000000000001
CsPdO3,Cs,Pd,tetragonal,-0.589,0.313,-,15.932,0.0,3.925,3.925,5.171,90,90,90,-1.2690000000000001
CsPmO3,Cs,Pm,cubic,-2.019,0.38299999999999995,0.4,19.667,0.0,4.616,4.616,4.616,90,90,90,-0.7859999999999999
CsPrO3,Cs,Pr,cubic,-1.973,0.37799999999999995,0.4,20.493000000000002,0.0,4.679,4.679,4.679,90,90,90,-0.746
CsPtO3,Cs,Pt,tetragonal,-0.7240000000000001,0.278,0.174,16.274,0.0,3.909,3.909,5.325,90,90,90,-0.777
CsRbO3,Cs,Rb,cubic,0.10099999999999999,1.234,-,20.592,0.0,4.687,4.687,4.687,90,90,90,-2.456
CsReO3,Cs,Re,tetragonal,-1.663,0.267,0.207,16.777,0.0,3.848,3.848,5.665,90,90,90,3.478
CsRhO3,Cs,Rh,tetragonal,-0.9440000000000001,0.21600000000000003,0.385,16.097,0.0,3.881,3.881,5.343,90,90,90,-0.371
CsRuO3,Cs,Ru,tetragonal,-1.157,0.264,0.002,14.074000000000002,0.0,3.914,3.914,4.595,90,90,90,0.8640000000000001
CsSbO3,Cs,Sb,tetragonal,-1.6280000000000001,0.179,-,18.125,0.0,3.789,3.789,6.312,90,90,90,0.82
CsScO3,Cs,Sc,rhombohedral,-2.068,0.4,0.401,15.603,0.0,6.04,6.04,6.04,60.1,60.1,60.1,-1.006
CsSiO3,Cs,Si,cubic,-1.435,1.05,-,11.283,0.0,3.835,3.835,3.835,90,90,90,-1.86
CsSmO3,Cs,Sm,rhombohedral,-2.031,0.38299999999999995,0.4,19.57,0.0,6.511,6.511,6.511,60.1,60.1,60.1,-0.8170000000000001
CsSnO3,Cs,Sn,cubic,-1.3780000000000001,0.308,-,15.157,0.0,4.232,4.232,4.232,90,90,90,-0.745
CsSrO3,Cs,Sr,cubic,-1.055,0.765,-,21.055999999999997,0.0,4.722,4.722,4.722,90,90,90,-1.786
CsTbO3,Cs,Tb,cubic,-1.962,0.381,0.4,18.761,0.0,4.544,4.544,4.544,90,90,90,-0.762
CsTcO3,Cs,Tc,tetragonal,-1.629,0.174,0.293,16.06,0.0,3.879,3.879,5.337,90,90,90,2.437
CsTeO3,Cs,Te,tetragonal,-1.442,0.12300000000000001,-,17.715,0.0,4.033,4.033,5.447,90,90,90,0.598
CsThO3,Cs,Th,tetragonal,-2.8160000000000003,0.21100000000000002,0.199,19.628,0.0,4.6,4.6,4.638,90,90,90,0.428
CsTiO3,Cs,Ti,tetragonal,-2.307,0.12300000000000001,0.186,15.265999999999998,0.0,3.901,3.901,5.016,90,90,90,-0.7979999999999999
CsTlO3,Cs,Tl,orthorhombic,-0.5670000000000001,0.465,-,17.835,0.0,6.399,6.4,8.71,90,90,90,-1.745
CsTmO3,Cs,Tm,rhombohedral,-2.15,0.379,0.4,17.713,0.0,6.26,6.26,6.26,60.9,60.9,60.9,-0.703
CsUO3,Cs,U,orthorhombic,-3.045,0.01,0.2,17.227999999999998,2.721,6.245,6.245,8.834,90,90,90,4.067
CsVO3,Cs,V,cubic,-1.781,0.6,0,12.665,0.0,3.986,3.986,3.986,90,90,90,0.368
CsWO3,Cs,W,tetragonal,-2.119,0.086,-0.001,16.497,0.0,3.879,3.879,5.483,90,90,90,4.755
CsYO3,Cs,Y,cubic,-2.0909999999999997,0.377,0.4,18.654,0.0,4.535,4.535,4.535,90,90,90,-0.732
CsYbO3,Cs,Yb,cubic,-1.296,0.75,-,17.725,0.0,4.458,4.458,4.458,90,90,90,-1.53
CsZnO3,Cs,Zn,cubic,-0.5329999999999999,0.769,-,13.697000000000001,0.0,4.091,4.091,4.091,90,90,90,-2.463
CsZrO3,Cs,Zr,cubic,-2.502,0.20800000000000002,0.2,15.888,0.0,4.299,4.299,4.299,90,90,90,-0.121
CuAcO3,Cu,Ac,rhombohedral,-2.023,0.218,0.401,16.494,0.297,6.531,6.531,6.531,53.1,53.1,53.1,-2.485