formula,atom a,atom b,lowest distortion,e_form,e_hull,mu_b,vpa,gap pbe,a,b,c,alpha,beta,gamma,e_form oxygen
YbKO3,Yb,K,cubic,-0.47,1.5819999999999999,-,14.7,0.0,4.189,4.189,4.189,90,90,90,-3.898
YbLaO3,Yb,La,cubic,-2.533,0.727,0.189,17.574,0.0,4.446,4.446,4.446,90,90,90,-1.381
YbLiO3,Yb,Li,cubic,-1.546,0.573,-,9.394,0.0,3.608,3.608,3.608,90,90,90,-1.844
YbLuO3,Yb,Lu,orthorhombic,-3.2439999999999998,0.14,0.2,13.155,0.0,5.745,5.968,7.674,90,90,90,-1.2209999999999999
YbMgO3,Yb,Mg,orthorhombic,-2.352,0.248,-,11.036,0.0,3.944,6.76,8.278,90,90,90,-1.575
YbMnO3,Yb,Mn,orthorhombic,-2.61,-0.078,0.6,10.224,0.7,5.193,5.322,7.398,90,90,90,1.429
YbMoO3,Yb,Mo,orthorhombic,-2.758,-0.062,0.072,11.478,0.0,5.329,5.605,7.685,90,90,90,4.2330000000000005
YbNaO3,Yb,Na,orthorhombic,-1.791,0.239,-,13.181,0.0,5.879,6.219,7.21,90,90,90,-6.069
YbNbO3,Yb,Nb,orthorhombic,-3.157,-0.122,0.003,12.034,0.0,5.432,5.661,7.826,90,90,90,5.047
YbNdO3,Yb,Nd,cubic,-2.492,0.785,0.2,17.07,0.0,4.403,4.403,4.403,90,90,90,-1.651
YbNiO3,Yb,Ni,orthorhombic,-1.8730000000000002,0.027000000000000003,0,9.982000000000001,0.0,5.126,5.319,7.323,90,90,90,-0.017
YbNpO3,Yb,Np,cubic,-2.937,0.693,0.6,16.614,0.0,4.363,4.363,4.363,90,90,90,3.523
YbOsO3,Yb,Os,orthorhombic,-2.188,-0.08800000000000001,0.167,11.095999999999998,0.0,5.182,5.655,7.574,90,90,90,1.732
YbPaO3,Yb,Pa,orthorhombic,-3.3080000000000003,-0.045,0.2,15.125,2.5269999999999997,5.85,6.086,8.497,90,90,90,5.2
YbPbO3,Yb,Pb,orthorhombic,-2.157,0.024,-,13.427999999999999,1.206,5.613,5.889,8.125,90,90,90,1.197
YbPdO3,Yb,Pd,orthorhombic,-1.8940000000000001,-0.10099999999999999,-,11.217,0.6609999999999999,5.239,5.65,7.579,90,90,90,-0.557
YbPmO3,Yb,Pm,cubic,-2.549,0.693,0.2,16.645,0.0,4.366,4.366,4.366,90,90,90,-1.6159999999999999
YbPrO3,Yb,Pr,cubic,-2.441,0.7509999999999999,0.2,17.502,0.0,4.44,4.44,4.44,90,90,90,-1.7169999999999999
YbPtO3,Yb,Pt,orthorhombic,-1.98,-0.133,0.001,11.319,0.932,5.227,5.704,7.593,90,90,90,-0.622
YbPuO3,Yb,Pu,orthorhombic,-3.469,-0.107,0.8,14.265,1.952,5.729,5.981,8.327,90,90,90,2.783
YbRbO3,Yb,Rb,cubic,-0.485,1.555,-,15.449000000000002,0.0,4.259,4.259,4.259,90,90,90,-2.986
YbReO3,Yb,Re,orthorhombic,-2.419,0.009000000000000001,-0.007,11.283,0.0,5.266,5.624,7.62,90,90,90,2.418
YbRuO3,Yb,Ru,orthorhombic,-2.246,-0.083,0.346,11.06,0.0,5.232,5.586,7.569,90,90,90,2.043
YbSbO3,Yb,Sb,orthorhombic,-2.404,-0.009000000000000001,-,12.953,0.0,5.543,5.83,8.016,90,90,90,2.452
YbScO3,Yb,Sc,orthorhombic,-3.2089999999999996,0.098,0.2,12.182,0.0,5.524,5.757,7.662,90,90,90,-1.0390000000000001
YbSiO3,Yb,Si,rhombohedral,-3.279,-0.032,-,8.867,4.854,4.996,4.996,4.996,60.3,60.3,60.3,6.309
YbSmO3,Yb,Sm,cubic,-2.583,0.6709999999999999,0.2,16.464000000000002,0.0,4.35,4.35,4.35,90,90,90,-1.6440000000000001
YbSnO3,Yb,Sn,orthorhombic,-2.6860000000000004,-0.105,-,12.17,2.745,5.456,5.677,7.858,90,90,90,3.3510000000000004
YbSrO3,Yb,Sr,cubic,-1.585,1.114,-,16.658,0.0,4.367,4.367,4.367,90,90,90,-3.446
YbTaO3,Yb,Ta,orthorhombic,-3.2489999999999997,-0.086,0.002,11.895,0.0,5.41,5.639,7.798,90,90,90,5.257999999999999
YbTbO3,Yb,Tb,cubic,-2.593,0.591,0.2,15.695,0.0,4.281,4.281,4.281,90,90,90,-1.472
YbTcO3,Yb,Tc,orthorhombic,-2.501,-0.077,0.326,11.202,0.0,5.261,5.592,7.615,90,90,90,2.947
YbTeO3,Yb,Te,orthorhombic,-2.1630000000000003,0.145,-,13.44,0.212,5.596,5.928,8.103,90,90,90,2.574
YbThO3,Yb,Th,cubic,-3.2289999999999996,0.716,0,18.729,1.129,4.541,4.541,4.541,90,90,90,4.825
YbTiO3,Yb,Ti,orthorhombic,-3.528,-0.128,0,10.921,2.364,5.298,5.449,7.566,90,90,90,5.064
YbTlO3,Yb,Tl,orthorhombic,-1.7309999999999999,0.141,-,13.495999999999999,0.0,5.603,5.994,8.038,90,90,90,-1.324
YbTmO3,Yb,Tm,cubic,-2.866,0.503,0.2,14.722000000000001,0.0,4.191,4.191,4.191,90,90,90,-1.3119999999999998
YbUO3,Yb,U,cubic,-3.0069999999999997,0.688,0.346,16.839000000000002,0.0,4.383,4.383,4.383,90,90,90,4.677
YbVO3,Yb,V,orthorhombic,-3.073,0.005,0.2,10.585,0.34600000000000003,5.228,5.407,7.49,90,90,90,3.823
YbWO3,Yb,W,orthorhombic,-2.734,-0.024,0.042,11.555,0.0,5.326,5.633,7.703,90,90,90,4.04
YbYO3,Yb,Y,cubic,-2.719,0.588,0.2,15.535,0.0,4.267,4.267,4.267,90,90,90,-1.615
Yb2O3,Yb,Yb,cubic,-2.123,0.684,-,13.648,0.0,4.086,4.086,4.086,90,90,90,-1.835
YbZnO3,Yb,Zn,orthorhombic,-1.869,0.19399999999999998,-,10.847999999999999,0.0,5.258,5.541,7.447,90,90,90,-1.072
YbZrO3,Yb,Zr,orthorhombic,-3.661,-0.078,0,12.652000000000001,4.217,5.525,5.756,7.958,90,90,90,5.935
ZnAcO3,Zn,Ac,orthorhombic,-2.28,0.17,0.2,15.115,0.0,5.779,6.011,8.703,90,90,90,-3.9960000000000004
ZnAgO3,Zn,Ag,cubic,0.098,0.87,-,12.512,0.0,3.97,3.97,3.97,90,90,90,-3.034
ZnAlO3,Zn,Al,cubic,-1.756,0.578,-,9.662,0.0,3.642,3.642,3.642,90,90,90,-1.3459999999999999
ZnAsO3,Zn,As,cubic,-0.9159999999999999,0.6559999999999999,-,10.665,0.0,3.764,3.764,3.764,90,90,90,1.044
ZnAuO3,Zn,Au,cubic,0.06,0.861,-,12.799000000000001,0.0,4,4,4,90,90,90,-1.671
ZnBO3,Zn,B,cubic,-0.8740000000000001,1.1520000000000001,-,7.457000000000001,0.0,3.341,3.341,3.341,90,90,90,-2.116
ZnBaO3,Zn,Ba,orthorhombic,-1.712,0.21899999999999997,-,16.147000000000002,2.081,6.108,6.555,8.065,90,90,90,-8.097999999999999
ZnBeO3,Zn,Be,cubic,-1.002,0.8440000000000001,-,8.176,0.0,3.445,3.445,3.445,90,90,90,-3.563
ZnCaO3,Zn,Ca,orthorhombic,-1.804,0.159,-,12.398,1.966,5.807,5.954,7.171,90,90,90,-6.667999999999999
ZnCdO3,Zn,Cd,cubic,-0.049,1.105,-,13.325999999999999,0.0,4.054,4.054,4.054,90,90,90,-4.308
ZnCeO3,Zn,Ce,orthorhombic,-2.228,0.192,0.2,14.337,0.626,5.515,5.978,8.697,90,90,90,-4.988
ZnCoO3,Zn,Co,cubic,-0.659,0.627,0.501,9.843,0.0,3.665,3.665,3.665,90,90,90,-1.3359999999999999
ZnCrO3,Zn,Cr,cubic,-1.335,0.618,0.398,10.405,0.0,3.733,3.733,3.733,90,90,90,-0.105
ZnCsO3,Zn,Cs,cubic,0.525,1.827,-,16.919,0.0,4.39,4.39,4.39,90,90,90,-10.323
ZnCuO3,Zn,Cu,cubic,-0.35200000000000004,0.63,-,9.967,0.0,3.68,3.68,3.68,90,90,90,-2.4019999999999997
ZnDyO3,Zn,Dy,cubic,-1.47,1.115,-0.219,15.600999999999999,0.0,4.273,4.273,4.273,90,90,90,-3.9589999999999996
ZnErO3,Zn,Er,cubic,-1.53,1.078,-0.214,15.258,0.0,4.241,4.241,4.241,90,90,90,-3.753
ZnEuO3,Zn,Eu,orthorhombic,-1.942,0.076,0,12.944,2.185,5.884,6.038,7.287,90,90,90,-6.1610000000000005
ZnFeO3,Zn,Fe,cubic,-0.97,0.562,0.798,10.280999999999999,0.0,3.718,3.718,3.718,90,90,90,-0.75
ZnGaO3,Zn,Ga,cubic,-0.976,0.767,-,10.793,0.0,3.779,3.779,3.779,90,90,90,-2.6069999999999998
ZnGdO3,Zn,Gd,cubic,-1.406,1.15,-0.225,16.173,0.0,4.324,4.324,4.324,90,90,90,-4.185
ZnGeO3,Zn,Ge,cubic,-1.247,0.586,-,10.047,0.0,3.69,3.69,3.69,90,90,90,1.669
ZnHfO3,Zn,Hf,cubic,-2.279,0.684,0,13.270999999999999,0.0,4.048,4.048,4.048,90,90,90,0.175
ZnHgO3,Zn,Hg,cubic,0.19399999999999998,1.036,-,13.822000000000001,0.0,4.104,4.104,4.104,90,90,90,-3.5389999999999997
ZnHoO3,Zn,Ho,cubic,-1.483,1.114,-0.005,15.4,0.0,4.254,4.254,4.254,90,90,90,-4.043
ZnInO3,Zn,In,cubic,-0.591,0.99,-,13.507,0.0,4.072,4.072,4.072,90,90,90,-3.517
ZnIrO3,Zn,Ir,cubic,-0.536,0.762,0.037,11.674000000000001,0.0,3.879,3.879,3.879,90,90,90,0.436
ZnKO3,Zn,K,cubic,0.861,2.17,-,14.808,0.0,4.199,4.199,4.199,90,90,90,-14.142999999999999
ZnLaO3,Zn,La,orthorhombic,-2.333,0.183,0.2,14.238,0.6559999999999999,5.439,5.977,8.759,90,90,90,-4.393
ZnLiO3,Zn,Li,cubic,-0.228,1.146,-,8.923,0.0,3.547,3.547,3.547,90,90,90,-5.5
ZnLuO3,Zn,Lu,cubic,-1.6219999999999999,1.0190000000000001,-0.207,14.623,0.0,4.182,4.182,4.182,90,90,90,-3.418
ZnMgO3,Zn,Mg,cubic,-0.8590000000000001,0.997,-,11.011,0.0,3.804,3.804,3.804,90,90,90,-3.967
ZnMnO3,Zn,Mn,cubic,-1.171,0.539,0.632,10.19,0.0,3.707,3.707,3.707,90,90,90,-0.703
ZnMoO3,Zn,Mo,orthorhombic,-1.746,0.221,0.4,10.706,0.0,5.262,5.266,7.728,90,90,90,3.8160000000000003
ZnNaO3,Zn,Na,cubic,0.409,1.695,-,12.26,0.0,3.943,3.943,3.943,90,90,90,-5.226
ZnNdO3,Zn,Nd,orthorhombic,-2.275,0.258,0.2,13.873,0.509,5.458,5.847,8.694,90,90,90,-4.769
ZnNiO3,Zn,Ni,cubic,-0.484,0.6729999999999999,-0.004,9.823,0.0,3.662,3.662,3.662,90,90,90,-1.995
ZnNpO3,Zn,Np,cubic,-1.999,0.887,0.391,15.615,0.0,4.274,4.274,4.274,90,90,90,-0.126
ZnOsO3,Zn,Os,cubic,-0.7929999999999999,0.563,0.027,11.573,0.0,3.868,3.868,3.868,90,90,90,3.0669999999999997
ZnPaO3,Zn,Pa,rhombohedral,-2.497,0.021,0.2,14.663,1.5230000000000001,6.136,6.136,6.136,55.6,55.6,55.6,3.359
ZnPbO3,Zn,Pb,rhombohedral,-1.266,0.062,-,12.800999999999998,0.218,5.778,5.778,5.778,57.3,57.3,57.3,-2.5140000000000002
ZnPdO3,Zn,Pd,cubic,-0.23,0.6890000000000001,-,11.812999999999999,0.0,3.894,3.894,3.894,90,90,90,-1.37
ZnPmO3,Zn,Pm,orthorhombic,-2.262,0.23600000000000002,0.2,13.210999999999999,0.0,5.494,5.734,8.386,90,90,90,-4.559
ZnPrO3,Zn,Pr,orthorhombic,-2.255,0.193,0.2,14.103,0.655,5.493,5.873,8.743,90,90,90,-4.902
ZnPtO3,Zn,Pt,cubic,-0.273,0.831,0.087,12.099,0.0,3.926,3.926,3.926,90,90,90,-0.9209999999999999
ZnPuO3,Zn,Pu,cubic,-1.827,0.789,0.685,15.805,0.0,4.291,4.291,4.291,90,90,90,-0.617
ZnRbO3,Zn,Rb,cubic,0.8340000000000001,2.13,-,15.259,0.0,4.241,4.241,4.241,90,90,90,-13.533
ZnReO3,Zn,Re,rhombohedral,-1.439,0.245,0,10.38,0.0,5.145,5.145,5.145,63.5,63.5,63.5,3.253
ZnRhO3,Zn,Rh,cubic,-0.519,0.763,0.258,11.575999999999999,0.0,3.868,3.868,3.868,90,90,90,-0.397
ZnRuO3,Zn,Ru,cubic,-0.768,0.6509999999999999,0.159,11.437999999999999,0.0,3.853,3.853,3.853,90,90,90,1.194
ZnSbO3,Zn,Sb,cubic,-1.068,0.5870000000000001,-,12.630999999999998,0.0,3.982,3.982,3.982,90,90,90,1.695
ZnScO3,Zn,Sc,cubic,-1.679,0.884,0.001,12.907,0.0,4.011,4.011,4.011,90,90,90,-2.964
ZnSiO3,Zn,Si,cubic,-1.95,0.5720000000000001,-,8.655,0.0,3.511,3.511,3.511,90,90,90,4.167
ZnSmO3,Zn,Sm,orthorhombic,-2.311,0.19899999999999998,0.2,13.484000000000002,0.5429999999999999,5.451,5.759,8.59,90,90,90,-4.454
ZnSnO3,Zn,Sn,cubic,-1.124,0.708,-,12.764000000000001,0.0,3.996,3.996,3.996,90,90,90,-0.12300000000000001
ZnSrO3,Zn,Sr,orthorhombic,-1.764,0.191,-,14.115,2.076,5.974,6.23,7.585,90,90,90,-8.333
ZnTbO3,Zn,Tb,cubic,-1.307,1.133,-0.215,15.857999999999999,0.0,4.296,4.296,4.296,90,90,90,-4.079
ZnTcO3,Zn,Tc,cubic,-1.145,0.535,-0.001,11.524000000000001,0.0,3.862,3.862,3.862,90,90,90,2.693
ZnTeO3,Zn,Te,cubic,-0.742,0.718,-,13.527000000000001,0.0,4.074,4.074,4.074,90,90,90,-0.011000000000000001
ZnThO3,Zn,Th,cubic,-2.064,1.138,-0.105,18.387999999999998,0.0,4.513,4.513,4.513,90,90,90,-2.511
ZnTiO3,Zn,Ti,cubic,-2.074,0.542,0,11.208,0.0,3.827,3.827,3.827,90,90,90,1.3419999999999999
ZnTlO3,Zn,Tl,cubic,-0.069,1.0590000000000002,-,14.328,0.0,4.153,4.153,4.153,90,90,90,-3.9730000000000003
ZnTmO3,Zn,Tm,cubic,-1.554,1.071,0.005,14.955,0.0,4.213,4.213,4.213,90,90,90,-3.7880000000000003
ZnUO3,Zn,U,cubic,-2.342,0.609,0.114,15.963,0.0,4.306,4.306,4.306,90,90,90,1.935
ZnVO3,Zn,V,cubic,-1.646,0.515,-0.164,10.546,0.0,3.75,3.75,3.75,90,90,90,1.518
ZnWO3,Zn,W,rhombohedral,-1.7309999999999999,0.24,0.003,10.607999999999999,0.0,5.18,5.18,5.18,63.6,63.6,63.6,4.632
ZnYO3,Zn,Y,cubic,-1.436,1.128,0.216,15.857000000000001,0.0,4.296,4.296,4.296,90,90,90,-4.032
ZnYbO3,Zn,Yb,orthorhombic,-1.94,0.12300000000000001,-,11.982000000000001,2.021,5.776,5.878,7.058,90,90,90,-5.565
Zn2O3,Zn,Zn,cubic,-0.44299999999999995,0.8759999999999999,-,10.790999999999999,0.0,3.779,3.779,3.779,90,90,90,-3.345
ZnZrO3,Zn,Zr,cubic,-2.084,0.7559999999999999,0.001,13.86,0.0,4.108,4.108,4.108,90,90,90,-0.544
ZrAcO3,Zr,Ac,orthorhombic,-3.1519999999999997,0.282,0,16.054000000000002,0.0,6.077,6.412,8.241,90,90,90,-2.736
ZrAgO3,Zr,Ag,orthorhombic,-2.119,0.16699999999999998,0,12.831,0.0,5.175,5.471,9.063,90,90,90,-2.1519999999999997
ZrAlO3,Zr,Al,orthorhombic,-2.998,0.302,0.199,9.959,0.0,5.16,5.36,7.202,90,90,90,5.22
ZrAsO3,Zr,As,cubic,-1.202,1.46,0.267,12.280999999999999,0.0,3.945,3.945,3.945,90,90,90,0.094
ZrAuO3,Zr,Au,cubic,-0.5329999999999999,1.7409999999999999,0.164,13.488,0.0,4.07,4.07,4.07,90,90,90,-3.832
ZrBO3,Zr,B,cubic,-1.921,1.162,0,7.996,0.0,3.419,3.419,3.419,90,90,90,4.306
ZrBaO3,Zr,Ba,orthorhombic,-3.1660000000000004,0.311,0,18.714000000000002,3.438,6.082,6.18,9.958,90,90,90,-3.113
ZrBeO3,Zr,Be,cubic,-2.7060000000000004,0.6609999999999999,0,8.145,0.9440000000000001,3.44,3.44,3.44,90,90,90,3.63
ZrBiO3,Zr,Bi,cubic,-0.845,1.8259999999999998,0.341,16.102999999999998,0.0,4.318,4.318,4.318,90,90,90,-1.949
ZrCdO3,Zr,Cd,cubic,-0.8759999999999999,1.798,0.021,13.548,0.0,4.076,4.076,4.076,90,90,90,-5.809
ZrCeO3,Zr,Ce,orthorhombic,-3.1180000000000003,0.33299999999999996,0,14.898,0.0,6.08,6.21,7.892,90,90,90,-8.487
ZrCoO3,Zr,Co,cubic,-1.774,0.903,-0.116,9.764,0.0,3.655,3.655,3.655,90,90,90,1.235
ZrCrO3,Zr,Cr,cubic,-2.191,0.816,0.502,10.805,0.0,3.78,3.78,3.78,90,90,90,2.431
ZrCsO3,Zr,Cs,cubic,0.32299999999999995,3.033,0.313,18.113,0.0,4.491,4.491,4.491,90,90,90,-8.142000000000001
ZrCuO3,Zr,Cu,cubic,-1.531,0.971,0,10.115,0.0,3.698,3.698,3.698,90,90,90,-0.039
ZrDyO3,Zr,Dy,cubic,-2.15,1.419,0.2,15.28,0.0,4.243,4.243,4.243,90,90,90,-4.93
ZrErO3,Zr,Er,cubic,-2.252,1.34,0.199,14.777000000000001,0.0,4.196,4.196,4.196,90,90,90,-4.042
ZrEuO3,Zr,Eu,orthorhombic,-3.408,0.28300000000000003,0,14.504000000000001,3.534,5.803,5.904,8.466,90,90,90,-9.478
ZrFeO3,Zr,Fe,cubic,-1.766,1.022,0.866,10.898,0.0,3.791,3.791,3.791,90,90,90,1.3
ZrGaO3,Zr,Ga,cubic,-1.9780000000000002,0.902,0.008,10.708,0.0,3.769,3.769,3.769,90,90,90,2.65
ZrGdO3,Zr,Gd,cubic,-2.0340000000000003,1.507,0.199,15.882,0.0,4.298,4.298,4.298,90,90,90,-5.803999999999999
ZrGeO3,Zr,Ge,cubic,-1.5530000000000002,1.206,0.272,11.129000000000001,0.0,3.818,3.818,3.818,90,90,90,1.155
ZrHfO3,Zr,Hf,cubic,-2.568,0.8440000000000001,0.389,13.395999999999999,0.0,4.061,4.061,4.061,90,90,90,3.708
ZrHgO3,Zr,Hg,cubic,-0.40399999999999997,1.9569999999999999,0.186,14.463,0.0,4.166,4.166,4.166,90,90,90,-3.61
ZrHoO3,Zr,Ho,cubic,-2.2030000000000003,1.3780000000000001,0.2,15.017999999999999,0.0,4.219,4.219,4.219,90,90,90,-3.165
ZrIrO3,Zr,Ir,cubic,-0.972,1.527,0.01,12.049000000000001,0.0,3.92,3.92,3.92,90,90,90,-2.228
ZrKO3,Zr,K,orthorhombic,-2.492,0.267,0.2,16.137,1.041,6.463,6.889,7.249,90,90,90,-11.897
ZrLaO3,Zr,La,orthorhombic,-3.197,0.35600000000000004,0,14.87,0.0,6.013,6.179,8.004,90,90,90,-8.802999999999999
ZrLiO3,Zr,Li,cubic,-1.965,0.89,0.2,8.605,0.0,3.504,3.504,3.504,90,90,90,-2.6639999999999997
ZrLuO3,Zr,Lu,cubic,-2.399,1.226,0.193,14.065,0.0,4.128,4.128,4.128,90,90,90,-2.884
ZrMgO3,Zr,Mg,cubic,-2.36,0.998,0,10.17,0.718,3.705,3.705,3.705,90,90,90,0.77
ZrMnO3,Zr,Mn,cubic,-1.956,1.0390000000000001,0.718,10.942,0.0,3.796,3.796,3.796,90,90,90,1.7590000000000001
ZrMoO3,Zr,Mo,cubic,-1.6740000000000002,1.1520000000000001,0.283,12.107000000000001,0.0,3.927,3.927,3.927,90,90,90,0.23600000000000002
ZrNaO3,Zr,Na,orthorhombic,-2.521,0.261,0.052,13.311,0.0,5.23,5.344,9.525,90,90,90,-4.743
ZrNbO3,Zr,Nb,cubic,-2.02,1.021,0.337,12.860999999999999,0.0,4.006,4.006,4.006,90,90,90,1.704
ZrNdO3,Zr,Nd,cubic,-1.733,1.755,0.2,17.463,0.0,4.436,4.436,4.436,90,90,90,-7.2170000000000005
ZrNiO3,Zr,Ni,cubic,-1.735,0.941,0.34,9.999,0.0,3.684,3.684,3.684,90,90,90,0.8859999999999999
ZrNpO3,Zr,Np,orthorhombic,-3.136,0.248,0.858,14.138,0.0,6.1,6.171,7.512,90,90,90,3.01
ZrOsO3,Zr,Os,cubic,-1.069,1.459,0.012,11.866,0.0,3.9,3.9,3.9,90,90,90,-1.742
ZrPaO3,Zr,Pa,cubic,-1.8840000000000001,1.226,0.591,16.831,0.0,4.382,4.382,4.382,90,90,90,1.995
ZrPdO3,Zr,Pd,cubic,-1.022,1.4169999999999998,0.011,12.151,0.0,3.931,3.931,3.931,90,90,90,-1.494
ZrPmO3,Zr,Pm,cubic,-1.8219999999999998,1.661,0.2,16.92,0.0,4.39,4.39,4.39,90,90,90,-6.026
ZrPrO3,Zr,Pr,orthorhombic,-3.14,0.332,0,14.625,0.0,6.054,6.148,7.859,90,90,90,-8.027999999999999
ZrPtO3,Zr,Pt,cubic,-0.83,1.587,0.087,12.697000000000001,0.0,3.989,3.989,3.989,90,90,90,-2.6630000000000003
ZrPuO3,Zr,Pu,cubic,-2.051,1.409,1.2,16.274,0.0,4.333,4.333,4.333,90,90,90,-4.9
ZrRbO3,Zr,Rb,orthorhombic,-2.464,0.201,0.2,17.128,1.244,6.546,7.221,7.247,90,90,90,-16.391
ZrReO3,Zr,Re,cubic,-1.308,1.385,0.209,11.975999999999999,0.0,3.912,3.912,3.912,90,90,90,-0.946
ZrRhO3,Zr,Rh,cubic,-1.202,1.2890000000000001,0.001,11.744000000000002,0.0,3.887,3.887,3.887,90,90,90,-1.402
ZrRuO3,Zr,Ru,cubic,-1.281,1.2790000000000001,0,11.625,0.0,3.874,3.874,3.874,90,90,90,-1.215
ZrSbO3,Zr,Sb,cubic,-1.109,1.597,0.389,14.235,0.0,4.144,4.144,4.144,90,90,90,-2.002
ZrScO3,Zr,Sc,cubic,-2.585,0.963,0.14,12.372,0.0,3.955,3.955,3.955,90,90,90,-0.591
ZrSiO3,Zr,Si,cubic,-2.0580000000000003,1.074,0.247,9.55,0.0,3.628,3.628,3.628,90,90,90,2.891
ZrSmO3,Zr,Sm,cubic,-1.879,1.63,0.2,16.665,0.0,4.368,4.368,4.368,90,90,90,-3.259
ZrSnO3,Zr,Sn,orthorhombic,-2.367,0.428,0,15.092,0.8220000000000001,5.909,6.048,8.446,90,90,90,1.196
ZrSrO3,Zr,Sr,orthorhombic,-3.2289999999999996,0.272,0,15.972000000000001,3.5,5.87,5.966,9.123,90,90,90,-10.761
ZrTaO3,Zr,Ta,cubic,-2.14,0.9159999999999999,0.369,12.683,0.0,3.988,3.988,3.988,90,90,90,2.082
ZrTbO3,Zr,Tb,cubic,-1.963,1.462,0.2,15.572000000000001,0.0,4.27,4.27,4.27,90,90,90,-5.312
ZrTcO3,Zr,Tc,cubic,-1.4480000000000002,1.242,0.131,11.751,0.0,3.888,3.888,3.888,90,90,90,-0.429
ZrTeO3,Zr,Te,cubic,-0.83,1.742,0.382,14.822000000000001,0.0,4.2,4.2,4.2,90,90,90,-2.209
ZrThO3,Zr,Th,cubic,-2.21,1.4409999999999998,0.398,18.669,0.0,4.536,4.536,4.536,90,90,90,0.652
ZrTiO3,Zr,Ti,cubic,-2.535,0.742,0.178,11.325,0.0,3.84,3.84,3.84,90,90,90,2.821
ZrTlO3,Zr,Tl,orthorhombic,-2.1390000000000002,0.386,0.001,14.796,0.0,6.066,6.094,8.007,90,90,90,-2.0180000000000002
ZrTmO3,Zr,Tm,cubic,-2.315,1.295,0.2,14.495999999999999,0.0,4.169,4.169,4.169,90,90,90,-3.645
ZrUO3,Zr,U,orthorhombic,-3.052,0.348,0.644,14.514000000000001,0.0,6.103,6.358,7.481,90,90,90,-1.56
ZrVO3,Zr,V,cubic,-2.208,0.8759999999999999,0.543,11.093,0.0,3.814,3.814,3.814,90,90,90,2.395
ZrWO3,Zr,W,cubic,-1.6369999999999998,1.196,0.339,12.2,0.0,3.936,3.936,3.936,90,90,90,0.191
ZrYO3,Zr,Y,cubic,-2.126,1.422,0.2,15.277000000000001,0.0,4.243,4.243,4.243,90,90,90,-4.92
ZrYbO3,Zr,Yb,orthorhombic,-3.455,0.205,0,13.136,4.007,5.558,5.726,8.254,90,90,90,-6.1770000000000005
ZrZnO3,Zr,Zn,cubic,-1.63,1.21,0.001,10.804,0.0,3.78,3.78,3.78,90,90,90,-0.762
Zr2O3,Zr,Zr,cubic,-2.3819999999999997,0.9059999999999999,0.382,13.915,0.0,4.113,4.113,4.113,90,90,90,3.218